 vasp.5.2.12 11Nov11 complex                                                    
  
 executed on             LinuxIFC date 2012.10.04  01:14:51
 running on    1 nodes
 distr:  one band on    1 nodes,    1 groups


--------------------------------------------------------------------------------------------------------


 INCAR:
 POTCAR:    PAW_PBE Mg_sv 12Apr2007               
 POTCAR:    PAW_PBE Mg_sv 12Apr2007               
   VRHFIN =Mg: p6s2                                                             
   LEXCH  = PE                                                                  
   EATOM  =  1728.4457 eV,  127.0372 Ry                                         
                                                                                
   TITEL  = PAW_PBE Mg_sv 12Apr2007                                             
   LULTRA =        F    use ultrasoft PP ?                                      
   IUNSCR =        0    unscreen: 0-lin 1-nonlin 2-no                           
   RPACOR =    0.000    partial core radius                                     
   POMASS =   24.305; ZVAL   =   10.000    mass and valenz                      
   RCORE  =    1.700    outmost cutoff radius                                   
   RWIGS  =    1.800; RWIGS  =    0.953    wigner-seitz radius (au A)           
   ENMAX  =  495.223; ENMIN  =  371.417 eV                                      
   RCLOC  =    1.506    cutoff for local pot                                    
   LCOR   =        T    correct aug charges                                     
   LPAW   =        T    paw PP                                                  
   EAUG   =  980.156                                                            
   RMAX   =    1.743    core radius for proj-oper                               
   RAUG   =    1.300    factor for augmentation sphere                          
   RDEP   =    1.781    radius for radial grids                                 
   RDEPT  =    1.300    core radius for aug-charge                              
                                                                                
   Atomic configuration                                                         
    5 entries                                                                   
     n  l   j            E        occ.                                          
     1  0  0.50     -1259.6230   2.0000                                         
     2  0  0.50       -79.8442   2.0000                                         
     3  0  0.50        -4.7055   2.0000                                         
     2  1  1.50       -46.6121   6.0000                                         
     3  2  1.50        -1.3606   0.0000                                         
   Description                                                                  
     l       E           TYP  RCUT    TYP  RCUT                                 
     0    -79.8442259     23  1.200                                             
     0     -4.7054661     23  1.700                                             
     1    -46.6121068     23  1.500                                             
     1      6.8029130     23  1.500                                             
     2     -1.3605826     23  1.700                                             
  local pseudopotential read in
  atomic valenz-charges read in
  non local Contribution for L=           0  read in
    real space projection operators read in
  non local Contribution for L=           0  read in
    real space projection operators read in
  non local Contribution for L=           1  read in
    real space projection operators read in
  non local Contribution for L=           1  read in
    real space projection operators read in
  non local Contribution for L=           2  read in
    real space projection operators read in
    PAW grid and wavefunctions read in
 
   number of l-projection  operators is LMAX  =           5
   number of lm-projection operators is LMMAX =          13
 

 ----------------------------------------------------------------------------- 
|                                                                             |
|  ADVICE TO THIS USER RUNNING 'VASP/VAMP'   (HEAR YOUR MASTER'S VOICE ...):  |
|                                                                             |
|      You have a (more or less) 'small supercell' and for smaller cells      |
|      it is recommended  to use the reciprocal-space projection scheme!      |
|      The real space optimization is not  efficient for small cells and it   |
|      is also less accurate ...                                              |
|      Therefore set LREAL=.FALSE. in the  INCAR file                         |
|                                                                             |
 ----------------------------------------------------------------------------- 

 Optimization of the real space projectors (new method)

 maximal supplied QI-value         = 22.11
 optimisation between [QCUT,QGAM] = [ 11.28, 28.52] = [ 35.61,227.80] Ry 
 Optimized for a Real-space Cutoff    1.02 Angstroem

   l    n(q)    QCUT    max X(q) W(low)/X(q) W(high)/X(q)  e(spline) 
   0      9    11.276     8.730    0.22E-04    0.28E-04    0.18E-07
   0      9    11.276     8.910    0.31E-04    0.40E-04    0.29E-07
   1      8    11.276     2.513    0.12E-04    0.20E-04    0.44E-07
   1      8    11.276     3.341    0.12E-04    0.86E-04    0.15E-06
   2      8    11.276     3.683    0.15E-03    0.75E-04    0.42E-07
  PAW_PBE Mg_sv 12Apr2007               :
 energy of atom  1       EATOM=-1728.4457
 kinetic energy error for atom=    0.1108 (will be added to EATOM!!)
 
 
 POSCAR: Mg                                      
  positions in direct lattice
  velocities in cartesian coordinates
 exchange correlation table for  LEXCH =        8
   RHO(1)=    0.500       N(1)  =     2000
   RHO(2)=  100.500       N(2)  =     4000
 


--------------------------------------------------------------------------------------------------------


 ion  position               nearest neighbor table
   1  0.333  0.667  0.250-
   2  0.667  0.333  0.750-
 
  LATTYP: Found a hexagonal cell.
 ALAT       =     3.1014165326
 C/A-ratio  =     1.6215363604
  
  Lattice vectors:
  
 A1 = (   3.1014165327,   0.0000000000,   0.0000000000)
 A2 = (  -1.5507082663,   2.6859055049,   0.0000000000)
 A3 = (   0.0000000000,   0.0000000000,   5.0290596763)
 Subroutine PRICEL returns:
 Original cell was already a primitive cell.
 

Analysis of symmetry for initial positions (statically):

 Routine SETGRP: Setting up the symmetry group for a 
 hexagonal supercell.


 Subroutine GETGRP returns: Found 24 space group operations
 (whereof 12 operations were pure point group operations)
 out of a pool of 24 trial point group operations.


The static configuration has the point symmetry D_3d.
 The point group associated with its full space group is D_6h.

Analysis of symmetry for dynamics (positions and initial velocities):

 Subroutine DYNSYM returns: Found 24 space group operations
 (whereof 12 operations were pure point group operations)
 out of a pool of 24 trial space group operations
 (whereof 12 operations were pure point group operations)
 and found also     1 'primitive' translations


The dynamic configuration has the point symmetry D_3d.
 The point group associated with its full space group is D_6h.

Analysis of magnetic symmetry:

 Subroutine MAGSYM returns: Found 24 space group operations
 (whereof 12 operations were pure point group operations)
 out of a pool of 24 trial space group operations
 (whereof 12 operations were pure point group operations)
 and found also     1 'primitive' translations


The magnetic configuration has the point symmetry D_3d.
 The point group associated with its full space group is D_6h.
 
 
 KPOINTS: Automatic mesh                          

Automatic generation of k-mesh.
 
 Subroutine IBZKPT returns following result:
 ===========================================
 
 Found    270 irreducible k-points:
 
 Following reciprocal coordinates:
            Coordinates               Weight
  0.000000  0.000000  0.000000      1.000000
  0.062500  0.000000  0.000000      6.000000
  0.125000  0.000000  0.000000      6.000000
  0.187500  0.000000  0.000000      6.000000
  0.250000  0.000000  0.000000      6.000000
  0.312500  0.000000  0.000000      6.000000
  0.375000  0.000000  0.000000      6.000000
  0.437500  0.000000  0.000000      6.000000
  0.500000  0.000000  0.000000      3.000000
  0.062500  0.062500  0.000000      6.000000
  0.125000  0.062500  0.000000     12.000000
  0.187500  0.062500  0.000000     12.000000
  0.250000  0.062500  0.000000     12.000000
  0.312500  0.062500  0.000000     12.000000
  0.375000  0.062500  0.000000     12.000000
  0.437500  0.062500  0.000000     12.000000
  0.125000  0.125000  0.000000      6.000000
  0.187500  0.125000  0.000000     12.000000
  0.250000  0.125000  0.000000     12.000000
  0.312500  0.125000  0.000000     12.000000
  0.375000  0.125000  0.000000     12.000000
  0.437500  0.125000  0.000000      6.000000
  0.187500  0.187500  0.000000      6.000000
  0.250000  0.187500  0.000000     12.000000
  0.312500  0.187500  0.000000     12.000000
  0.375000  0.187500  0.000000     12.000000
  0.250000  0.250000  0.000000      6.000000
  0.312500  0.250000  0.000000     12.000000
  0.375000  0.250000  0.000000      6.000000
  0.312500  0.312500  0.000000      6.000000
  0.000000  0.000000  0.062500      2.000000
  0.062500  0.000000  0.062500     12.000000
  0.125000  0.000000  0.062500     12.000000
  0.187500  0.000000  0.062500     12.000000
  0.250000  0.000000  0.062500     12.000000
  0.312500  0.000000  0.062500     12.000000
  0.375000  0.000000  0.062500     12.000000
  0.437500  0.000000  0.062500     12.000000
  0.500000  0.000000  0.062500      6.000000
  0.062500  0.062500  0.062500     12.000000
  0.125000  0.062500  0.062500     24.000000
  0.187500  0.062500  0.062500     24.000000
  0.250000  0.062500  0.062500     24.000000
  0.312500  0.062500  0.062500     24.000000
  0.375000  0.062500  0.062500     24.000000
  0.437500  0.062500  0.062500     24.000000
  0.125000  0.125000  0.062500     12.000000
  0.187500  0.125000  0.062500     24.000000
  0.250000  0.125000  0.062500     24.000000
  0.312500  0.125000  0.062500     24.000000
  0.375000  0.125000  0.062500     24.000000
  0.437500  0.125000  0.062500     12.000000
  0.187500  0.187500  0.062500     12.000000
  0.250000  0.187500  0.062500     24.000000
  0.312500  0.187500  0.062500     24.000000
  0.375000  0.187500  0.062500     24.000000
  0.250000  0.250000  0.062500     12.000000
  0.312500  0.250000  0.062500     24.000000
  0.375000  0.250000  0.062500     12.000000
  0.312500  0.312500  0.062500     12.000000
  0.000000  0.000000  0.125000      2.000000
  0.062500  0.000000  0.125000     12.000000
  0.125000  0.000000  0.125000     12.000000
  0.187500  0.000000  0.125000     12.000000
  0.250000  0.000000  0.125000     12.000000
  0.312500  0.000000  0.125000     12.000000
  0.375000  0.000000  0.125000     12.000000
  0.437500  0.000000  0.125000     12.000000
  0.500000  0.000000  0.125000      6.000000
  0.062500  0.062500  0.125000     12.000000
  0.125000  0.062500  0.125000     24.000000
  0.187500  0.062500  0.125000     24.000000
  0.250000  0.062500  0.125000     24.000000
  0.312500  0.062500  0.125000     24.000000
  0.375000  0.062500  0.125000     24.000000
  0.437500  0.062500  0.125000     24.000000
  0.125000  0.125000  0.125000     12.000000
  0.187500  0.125000  0.125000     24.000000
  0.250000  0.125000  0.125000     24.000000
  0.312500  0.125000  0.125000     24.000000
  0.375000  0.125000  0.125000     24.000000
  0.437500  0.125000  0.125000     12.000000
  0.187500  0.187500  0.125000     12.000000
  0.250000  0.187500  0.125000     24.000000
  0.312500  0.187500  0.125000     24.000000
  0.375000  0.187500  0.125000     24.000000
  0.250000  0.250000  0.125000     12.000000
  0.312500  0.250000  0.125000     24.000000
  0.375000  0.250000  0.125000     12.000000
  0.312500  0.312500  0.125000     12.000000
  0.000000  0.000000  0.187500      2.000000
  0.062500  0.000000  0.187500     12.000000
  0.125000  0.000000  0.187500     12.000000
  0.187500  0.000000  0.187500     12.000000
  0.250000  0.000000  0.187500     12.000000
  0.312500  0.000000  0.187500     12.000000
  0.375000  0.000000  0.187500     12.000000
  0.437500  0.000000  0.187500     12.000000
  0.500000  0.000000  0.187500      6.000000
  0.062500  0.062500  0.187500     12.000000
  0.125000  0.062500  0.187500     24.000000
  0.187500  0.062500  0.187500     24.000000
  0.250000  0.062500  0.187500     24.000000
  0.312500  0.062500  0.187500     24.000000
  0.375000  0.062500  0.187500     24.000000
  0.437500  0.062500  0.187500     24.000000
  0.125000  0.125000  0.187500     12.000000
  0.187500  0.125000  0.187500     24.000000
  0.250000  0.125000  0.187500     24.000000
  0.312500  0.125000  0.187500     24.000000
  0.375000  0.125000  0.187500     24.000000
  0.437500  0.125000  0.187500     12.000000
  0.187500  0.187500  0.187500     12.000000
  0.250000  0.187500  0.187500     24.000000
  0.312500  0.187500  0.187500     24.000000
  0.375000  0.187500  0.187500     24.000000
  0.250000  0.250000  0.187500     12.000000
  0.312500  0.250000  0.187500     24.000000
  0.375000  0.250000  0.187500     12.000000
  0.312500  0.312500  0.187500     12.000000
  0.000000  0.000000  0.250000      2.000000
  0.062500  0.000000  0.250000     12.000000
  0.125000  0.000000  0.250000     12.000000
  0.187500  0.000000  0.250000     12.000000
  0.250000  0.000000  0.250000     12.000000
  0.312500  0.000000  0.250000     12.000000
  0.375000  0.000000  0.250000     12.000000
  0.437500  0.000000  0.250000     12.000000
  0.500000  0.000000  0.250000      6.000000
  0.062500  0.062500  0.250000     12.000000
  0.125000  0.062500  0.250000     24.000000
  0.187500  0.062500  0.250000     24.000000
  0.250000  0.062500  0.250000     24.000000
  0.312500  0.062500  0.250000     24.000000
  0.375000  0.062500  0.250000     24.000000
  0.437500  0.062500  0.250000     24.000000
  0.125000  0.125000  0.250000     12.000000
  0.187500  0.125000  0.250000     24.000000
  0.250000  0.125000  0.250000     24.000000
  0.312500  0.125000  0.250000     24.000000
  0.375000  0.125000  0.250000     24.000000
  0.437500  0.125000  0.250000     12.000000
  0.187500  0.187500  0.250000     12.000000
  0.250000  0.187500  0.250000     24.000000
  0.312500  0.187500  0.250000     24.000000
  0.375000  0.187500  0.250000     24.000000
  0.250000  0.250000  0.250000     12.000000
  0.312500  0.250000  0.250000     24.000000
  0.375000  0.250000  0.250000     12.000000
  0.312500  0.312500  0.250000     12.000000
  0.000000  0.000000  0.312500      2.000000
  0.062500  0.000000  0.312500     12.000000
  0.125000  0.000000  0.312500     12.000000
  0.187500  0.000000  0.312500     12.000000
  0.250000  0.000000  0.312500     12.000000
  0.312500  0.000000  0.312500     12.000000
  0.375000  0.000000  0.312500     12.000000
  0.437500  0.000000  0.312500     12.000000
  0.500000  0.000000  0.312500      6.000000
  0.062500  0.062500  0.312500     12.000000
  0.125000  0.062500  0.312500     24.000000
  0.187500  0.062500  0.312500     24.000000
  0.250000  0.062500  0.312500     24.000000
  0.312500  0.062500  0.312500     24.000000
  0.375000  0.062500  0.312500     24.000000
  0.437500  0.062500  0.312500     24.000000
  0.125000  0.125000  0.312500     12.000000
  0.187500  0.125000  0.312500     24.000000
  0.250000  0.125000  0.312500     24.000000
  0.312500  0.125000  0.312500     24.000000
  0.375000  0.125000  0.312500     24.000000
  0.437500  0.125000  0.312500     12.000000
  0.187500  0.187500  0.312500     12.000000
  0.250000  0.187500  0.312500     24.000000
  0.312500  0.187500  0.312500     24.000000
  0.375000  0.187500  0.312500     24.000000
  0.250000  0.250000  0.312500     12.000000
  0.312500  0.250000  0.312500     24.000000
  0.375000  0.250000  0.312500     12.000000
  0.312500  0.312500  0.312500     12.000000
  0.000000  0.000000  0.375000      2.000000
  0.062500  0.000000  0.375000     12.000000
  0.125000  0.000000  0.375000     12.000000
  0.187500  0.000000  0.375000     12.000000
  0.250000  0.000000  0.375000     12.000000
  0.312500  0.000000  0.375000     12.000000
  0.375000  0.000000  0.375000     12.000000
  0.437500  0.000000  0.375000     12.000000
  0.500000  0.000000  0.375000      6.000000
  0.062500  0.062500  0.375000     12.000000
  0.125000  0.062500  0.375000     24.000000
  0.187500  0.062500  0.375000     24.000000
  0.250000  0.062500  0.375000     24.000000
  0.312500  0.062500  0.375000     24.000000
  0.375000  0.062500  0.375000     24.000000
  0.437500  0.062500  0.375000     24.000000
  0.125000  0.125000  0.375000     12.000000
  0.187500  0.125000  0.375000     24.000000
  0.250000  0.125000  0.375000     24.000000
  0.312500  0.125000  0.375000     24.000000
  0.375000  0.125000  0.375000     24.000000
  0.437500  0.125000  0.375000     12.000000
  0.187500  0.187500  0.375000     12.000000
  0.250000  0.187500  0.375000     24.000000
  0.312500  0.187500  0.375000     24.000000
  0.375000  0.187500  0.375000     24.000000
  0.250000  0.250000  0.375000     12.000000
  0.312500  0.250000  0.375000     24.000000
  0.375000  0.250000  0.375000     12.000000
  0.312500  0.312500  0.375000     12.000000
  0.000000  0.000000  0.437500      2.000000
  0.062500  0.000000  0.437500     12.000000
  0.125000  0.000000  0.437500     12.000000
  0.187500  0.000000  0.437500     12.000000
  0.250000  0.000000  0.437500     12.000000
  0.312500  0.000000  0.437500     12.000000
  0.375000  0.000000  0.437500     12.000000
  0.437500  0.000000  0.437500     12.000000
  0.500000  0.000000  0.437500      6.000000
  0.062500  0.062500  0.437500     12.000000
  0.125000  0.062500  0.437500     24.000000
  0.187500  0.062500  0.437500     24.000000
  0.250000  0.062500  0.437500     24.000000
  0.312500  0.062500  0.437500     24.000000
  0.375000  0.062500  0.437500     24.000000
  0.437500  0.062500  0.437500     24.000000
  0.125000  0.125000  0.437500     12.000000
  0.187500  0.125000  0.437500     24.000000
  0.250000  0.125000  0.437500     24.000000
  0.312500  0.125000  0.437500     24.000000
  0.375000  0.125000  0.437500     24.000000
  0.437500  0.125000  0.437500     12.000000
  0.187500  0.187500  0.437500     12.000000
  0.250000  0.187500  0.437500     24.000000
  0.312500  0.187500  0.437500     24.000000
  0.375000  0.187500  0.437500     24.000000
  0.250000  0.250000  0.437500     12.000000
  0.312500  0.250000  0.437500     24.000000
  0.375000  0.250000  0.437500     12.000000
  0.312500  0.312500  0.437500     12.000000
  0.000000  0.000000  0.500000      1.000000
  0.062500  0.000000  0.500000      6.000000
  0.125000  0.000000  0.500000      6.000000
  0.187500  0.000000  0.500000      6.000000
  0.250000  0.000000  0.500000      6.000000
  0.312500  0.000000  0.500000      6.000000
  0.375000  0.000000  0.500000      6.000000
  0.437500  0.000000  0.500000      6.000000
  0.500000  0.000000  0.500000      3.000000
  0.062500  0.062500  0.500000      6.000000
  0.125000  0.062500  0.500000     12.000000
  0.187500  0.062500  0.500000     12.000000
  0.250000  0.062500  0.500000     12.000000
  0.312500  0.062500  0.500000     12.000000
  0.375000  0.062500  0.500000     12.000000
  0.437500  0.062500  0.500000     12.000000
  0.125000  0.125000  0.500000      6.000000
  0.187500  0.125000  0.500000     12.000000
  0.250000  0.125000  0.500000     12.000000
  0.312500  0.125000  0.500000     12.000000
  0.375000  0.125000  0.500000     12.000000
  0.437500  0.125000  0.500000      6.000000
  0.187500  0.187500  0.500000      6.000000
  0.250000  0.187500  0.500000     12.000000
  0.312500  0.187500  0.500000     12.000000
  0.375000  0.187500  0.500000     12.000000
  0.250000  0.250000  0.500000      6.000000
  0.312500  0.250000  0.500000     12.000000
  0.375000  0.250000  0.500000      6.000000
  0.312500  0.312500  0.500000      6.000000
 
 Following cartesian coordinates:
            Coordinates               Weight
  0.000000  0.000000  0.000000      1.000000
  0.020152  0.011635  0.000000      6.000000
  0.040304  0.023270  0.000000      6.000000
  0.060456  0.034904  0.000000      6.000000
  0.080608  0.046539  0.000000      6.000000
  0.100760  0.058174  0.000000      6.000000
  0.120912  0.069809  0.000000      6.000000
  0.141065  0.081444  0.000000      6.000000
  0.161217  0.093078  0.000000      3.000000
  0.020152  0.034904  0.000000      6.000000
  0.040304  0.046539  0.000000     12.000000
  0.060456  0.058174  0.000000     12.000000
  0.080608  0.069809  0.000000     12.000000
  0.100760  0.081444  0.000000     12.000000
  0.120912  0.093078  0.000000     12.000000
  0.141065  0.104713  0.000000     12.000000
  0.040304  0.069809  0.000000      6.000000
  0.060456  0.081444  0.000000     12.000000
  0.080608  0.093078  0.000000     12.000000
  0.100760  0.104713  0.000000     12.000000
  0.120912  0.116348  0.000000     12.000000
  0.141065  0.127983  0.000000      6.000000
  0.060456  0.104713  0.000000      6.000000
  0.080608  0.116348  0.000000     12.000000
  0.100760  0.127983  0.000000     12.000000
  0.120912  0.139618  0.000000     12.000000
  0.080608  0.139618  0.000000      6.000000
  0.100760  0.151253  0.000000     12.000000
  0.120912  0.162887  0.000000      6.000000
  0.100760  0.174522  0.000000      6.000000
  0.000000  0.000000  0.012428      2.000000
  0.020152  0.011635  0.012428     12.000000
  0.040304  0.023270  0.012428     12.000000
  0.060456  0.034904  0.012428     12.000000
  0.080608  0.046539  0.012428     12.000000
  0.100760  0.058174  0.012428     12.000000
  0.120912  0.069809  0.012428     12.000000
  0.141065  0.081444  0.012428     12.000000
  0.161217  0.093078  0.012428      6.000000
  0.020152  0.034904  0.012428     12.000000
  0.040304  0.046539  0.012428     24.000000
  0.060456  0.058174  0.012428     24.000000
  0.080608  0.069809  0.012428     24.000000
  0.100760  0.081444  0.012428     24.000000
  0.120912  0.093078  0.012428     24.000000
  0.141065  0.104713  0.012428     24.000000
  0.040304  0.069809  0.012428     12.000000
  0.060456  0.081444  0.012428     24.000000
  0.080608  0.093078  0.012428     24.000000
  0.100760  0.104713  0.012428     24.000000
  0.120912  0.116348  0.012428     24.000000
  0.141065  0.127983  0.012428     12.000000
  0.060456  0.104713  0.012428     12.000000
  0.080608  0.116348  0.012428     24.000000
  0.100760  0.127983  0.012428     24.000000
  0.120912  0.139618  0.012428     24.000000
  0.080608  0.139618  0.012428     12.000000
  0.100760  0.151253  0.012428     24.000000
  0.120912  0.162887  0.012428     12.000000
  0.100760  0.174522  0.012428     12.000000
  0.000000  0.000000  0.024856      2.000000
  0.020152  0.011635  0.024856     12.000000
  0.040304  0.023270  0.024856     12.000000
  0.060456  0.034904  0.024856     12.000000
  0.080608  0.046539  0.024856     12.000000
  0.100760  0.058174  0.024856     12.000000
  0.120912  0.069809  0.024856     12.000000
  0.141065  0.081444  0.024856     12.000000
  0.161217  0.093078  0.024856      6.000000
  0.020152  0.034904  0.024856     12.000000
  0.040304  0.046539  0.024856     24.000000
  0.060456  0.058174  0.024856     24.000000
  0.080608  0.069809  0.024856     24.000000
  0.100760  0.081444  0.024856     24.000000
  0.120912  0.093078  0.024856     24.000000
  0.141065  0.104713  0.024856     24.000000
  0.040304  0.069809  0.024856     12.000000
  0.060456  0.081444  0.024856     24.000000
  0.080608  0.093078  0.024856     24.000000
  0.100760  0.104713  0.024856     24.000000
  0.120912  0.116348  0.024856     24.000000
  0.141065  0.127983  0.024856     12.000000
  0.060456  0.104713  0.024856     12.000000
  0.080608  0.116348  0.024856     24.000000
  0.100760  0.127983  0.024856     24.000000
  0.120912  0.139618  0.024856     24.000000
  0.080608  0.139618  0.024856     12.000000
  0.100760  0.151253  0.024856     24.000000
  0.120912  0.162887  0.024856     12.000000
  0.100760  0.174522  0.024856     12.000000
  0.000000  0.000000  0.037283      2.000000
  0.020152  0.011635  0.037283     12.000000
  0.040304  0.023270  0.037283     12.000000
  0.060456  0.034904  0.037283     12.000000
  0.080608  0.046539  0.037283     12.000000
  0.100760  0.058174  0.037283     12.000000
  0.120912  0.069809  0.037283     12.000000
  0.141065  0.081444  0.037283     12.000000
  0.161217  0.093078  0.037283      6.000000
  0.020152  0.034904  0.037283     12.000000
  0.040304  0.046539  0.037283     24.000000
  0.060456  0.058174  0.037283     24.000000
  0.080608  0.069809  0.037283     24.000000
  0.100760  0.081444  0.037283     24.000000
  0.120912  0.093078  0.037283     24.000000
  0.141065  0.104713  0.037283     24.000000
  0.040304  0.069809  0.037283     12.000000
  0.060456  0.081444  0.037283     24.000000
  0.080608  0.093078  0.037283     24.000000
  0.100760  0.104713  0.037283     24.000000
  0.120912  0.116348  0.037283     24.000000
  0.141065  0.127983  0.037283     12.000000
  0.060456  0.104713  0.037283     12.000000
  0.080608  0.116348  0.037283     24.000000
  0.100760  0.127983  0.037283     24.000000
  0.120912  0.139618  0.037283     24.000000
  0.080608  0.139618  0.037283     12.000000
  0.100760  0.151253  0.037283     24.000000
  0.120912  0.162887  0.037283     12.000000
  0.100760  0.174522  0.037283     12.000000
  0.000000  0.000000  0.049711      2.000000
  0.020152  0.011635  0.049711     12.000000
  0.040304  0.023270  0.049711     12.000000
  0.060456  0.034904  0.049711     12.000000
  0.080608  0.046539  0.049711     12.000000
  0.100760  0.058174  0.049711     12.000000
  0.120912  0.069809  0.049711     12.000000
  0.141065  0.081444  0.049711     12.000000
  0.161217  0.093078  0.049711      6.000000
  0.020152  0.034904  0.049711     12.000000
  0.040304  0.046539  0.049711     24.000000
  0.060456  0.058174  0.049711     24.000000
  0.080608  0.069809  0.049711     24.000000
  0.100760  0.081444  0.049711     24.000000
  0.120912  0.093078  0.049711     24.000000
  0.141065  0.104713  0.049711     24.000000
  0.040304  0.069809  0.049711     12.000000
  0.060456  0.081444  0.049711     24.000000
  0.080608  0.093078  0.049711     24.000000
  0.100760  0.104713  0.049711     24.000000
  0.120912  0.116348  0.049711     24.000000
  0.141065  0.127983  0.049711     12.000000
  0.060456  0.104713  0.049711     12.000000
  0.080608  0.116348  0.049711     24.000000
  0.100760  0.127983  0.049711     24.000000
  0.120912  0.139618  0.049711     24.000000
  0.080608  0.139618  0.049711     12.000000
  0.100760  0.151253  0.049711     24.000000
  0.120912  0.162887  0.049711     12.000000
  0.100760  0.174522  0.049711     12.000000
  0.000000  0.000000  0.062139      2.000000
  0.020152  0.011635  0.062139     12.000000
  0.040304  0.023270  0.062139     12.000000
  0.060456  0.034904  0.062139     12.000000
  0.080608  0.046539  0.062139     12.000000
  0.100760  0.058174  0.062139     12.000000
  0.120912  0.069809  0.062139     12.000000
  0.141065  0.081444  0.062139     12.000000
  0.161217  0.093078  0.062139      6.000000
  0.020152  0.034904  0.062139     12.000000
  0.040304  0.046539  0.062139     24.000000
  0.060456  0.058174  0.062139     24.000000
  0.080608  0.069809  0.062139     24.000000
  0.100760  0.081444  0.062139     24.000000
  0.120912  0.093078  0.062139     24.000000
  0.141065  0.104713  0.062139     24.000000
  0.040304  0.069809  0.062139     12.000000
  0.060456  0.081444  0.062139     24.000000
  0.080608  0.093078  0.062139     24.000000
  0.100760  0.104713  0.062139     24.000000
  0.120912  0.116348  0.062139     24.000000
  0.141065  0.127983  0.062139     12.000000
  0.060456  0.104713  0.062139     12.000000
  0.080608  0.116348  0.062139     24.000000
  0.100760  0.127983  0.062139     24.000000
  0.120912  0.139618  0.062139     24.000000
  0.080608  0.139618  0.062139     12.000000
  0.100760  0.151253  0.062139     24.000000
  0.120912  0.162887  0.062139     12.000000
  0.100760  0.174522  0.062139     12.000000
  0.000000  0.000000  0.074567      2.000000
  0.020152  0.011635  0.074567     12.000000
  0.040304  0.023270  0.074567     12.000000
  0.060456  0.034904  0.074567     12.000000
  0.080608  0.046539  0.074567     12.000000
  0.100760  0.058174  0.074567     12.000000
  0.120912  0.069809  0.074567     12.000000
  0.141065  0.081444  0.074567     12.000000
  0.161217  0.093078  0.074567      6.000000
  0.020152  0.034904  0.074567     12.000000
  0.040304  0.046539  0.074567     24.000000
  0.060456  0.058174  0.074567     24.000000
  0.080608  0.069809  0.074567     24.000000
  0.100760  0.081444  0.074567     24.000000
  0.120912  0.093078  0.074567     24.000000
  0.141065  0.104713  0.074567     24.000000
  0.040304  0.069809  0.074567     12.000000
  0.060456  0.081444  0.074567     24.000000
  0.080608  0.093078  0.074567     24.000000
  0.100760  0.104713  0.074567     24.000000
  0.120912  0.116348  0.074567     24.000000
  0.141065  0.127983  0.074567     12.000000
  0.060456  0.104713  0.074567     12.000000
  0.080608  0.116348  0.074567     24.000000
  0.100760  0.127983  0.074567     24.000000
  0.120912  0.139618  0.074567     24.000000
  0.080608  0.139618  0.074567     12.000000
  0.100760  0.151253  0.074567     24.000000
  0.120912  0.162887  0.074567     12.000000
  0.100760  0.174522  0.074567     12.000000
  0.000000  0.000000  0.086994      2.000000
  0.020152  0.011635  0.086994     12.000000
  0.040304  0.023270  0.086994     12.000000
  0.060456  0.034904  0.086994     12.000000
  0.080608  0.046539  0.086994     12.000000
  0.100760  0.058174  0.086994     12.000000
  0.120912  0.069809  0.086994     12.000000
  0.141065  0.081444  0.086994     12.000000
  0.161217  0.093078  0.086994      6.000000
  0.020152  0.034904  0.086994     12.000000
  0.040304  0.046539  0.086994     24.000000
  0.060456  0.058174  0.086994     24.000000
  0.080608  0.069809  0.086994     24.000000
  0.100760  0.081444  0.086994     24.000000
  0.120912  0.093078  0.086994     24.000000
  0.141065  0.104713  0.086994     24.000000
  0.040304  0.069809  0.086994     12.000000
  0.060456  0.081444  0.086994     24.000000
  0.080608  0.093078  0.086994     24.000000
  0.100760  0.104713  0.086994     24.000000
  0.120912  0.116348  0.086994     24.000000
  0.141065  0.127983  0.086994     12.000000
  0.060456  0.104713  0.086994     12.000000
  0.080608  0.116348  0.086994     24.000000
  0.100760  0.127983  0.086994     24.000000
  0.120912  0.139618  0.086994     24.000000
  0.080608  0.139618  0.086994     12.000000
  0.100760  0.151253  0.086994     24.000000
  0.120912  0.162887  0.086994     12.000000
  0.100760  0.174522  0.086994     12.000000
  0.000000  0.000000  0.099422      1.000000
  0.020152  0.011635  0.099422      6.000000
  0.040304  0.023270  0.099422      6.000000
  0.060456  0.034904  0.099422      6.000000
  0.080608  0.046539  0.099422      6.000000
  0.100760  0.058174  0.099422      6.000000
  0.120912  0.069809  0.099422      6.000000
  0.141065  0.081444  0.099422      6.000000
  0.161217  0.093078  0.099422      3.000000
  0.020152  0.034904  0.099422      6.000000
  0.040304  0.046539  0.099422     12.000000
  0.060456  0.058174  0.099422     12.000000
  0.080608  0.069809  0.099422     12.000000
  0.100760  0.081444  0.099422     12.000000
  0.120912  0.093078  0.099422     12.000000
  0.141065  0.104713  0.099422     12.000000
  0.040304  0.069809  0.099422      6.000000
  0.060456  0.081444  0.099422     12.000000
  0.080608  0.093078  0.099422     12.000000
  0.100760  0.104713  0.099422     12.000000
  0.120912  0.116348  0.099422     12.000000
  0.141065  0.127983  0.099422      6.000000
  0.060456  0.104713  0.099422      6.000000
  0.080608  0.116348  0.099422     12.000000
  0.100760  0.127983  0.099422     12.000000
  0.120912  0.139618  0.099422     12.000000
  0.080608  0.139618  0.099422      6.000000
  0.100760  0.151253  0.099422     12.000000
  0.120912  0.162887  0.099422      6.000000
  0.100760  0.174522  0.099422      6.000000
 


--------------------------------------------------------------------------------------------------------




 Dimension of arrays:
   k-points           NKPTS =    270   k-points in BZ     NKDIM =    270   number of bands    NBANDS=     15
   number of dos      NEDOS =    301   number of ions     NIONS =      2
   non local maximal  LDIM  =      5   non local SUM 2l+1 LMDIM =     13
   total plane-waves  NPLWV =  23040
   max r-space proj   IRMAX =   2476   max aug-charges    IRDMAX=   5145
   dimension x,y,z NGX =    24 NGY =   24 NGZ =   40
   dimension x,y,z NGXF=    42 NGYF=   42 NGZF=   70
   support grid    NGXF=    42 NGYF=   42 NGZF=   70
   ions per type =               2
 NGX,Y,Z   is equivalent  to a cutoff of  12.86, 12.86, 13.22 a.u.
 NGXF,Y,Z  is equivalent  to a cutoff of  22.51, 22.51, 23.14 a.u.


 I would recommend the setting:
   dimension x,y,z NGX =    23 NGY =   23 NGZ =   37
 SYSTEM =  Untitled (VASP)                         
 POSCAR =  Mg                                      

 Startparameter for this run:
   NWRITE =      2    write-flag & timer
   PREC   = high      normal or accurate (medium, high low for compatibility)
   ISTART =      0    job   : 0-new  1-cont  2-samecut
   ICHARG =      2    charge: 1-file 2-atom 10-const
   ISPIN  =      2    spin polarized calculation?
   LNONCOLLINEAR =      F non collinear calculations
   LSORBIT =      F    spin-orbit coupling
   INIWAV =      1    electr: 0-lowe 1-rand  2-diag
   LASPH  =      F    aspherical Exc in radial PAW
   METAGGA=      F    non-selfconsistent MetaGGA calc.

 Electronic Relaxation 1
   ENCUT  =  500.0 eV  36.75 Ry    6.06 a.u.   5.65  5.65  9.17*2*pi/ulx,y,z
   ENINI  =  500.0     initial cutoff
   ENAUG  =  980.2 eV  augmentation charge cutoff
   NELM   =     60;   NELMIN=  2; NELMDL= -5     # of ELM steps 
   EDIFF  = 0.1E-04   stopping-criterion for ELM
   LREAL  =      T    real-space projection
   NLSPLINE    = F    spline interpolate recip. space projectors
   LCOMPAT=      F    compatible to vasp.4.4
   GGA_COMPAT  = T    GGA compatible to vasp.4.4-vasp.4.6
   LMAXPAW     = -100 max onsite density
   LMAXMIX     =    2 max onsite mixed and CHGCAR
   VOSKOWN=      0    Vosko Wilk Nusair interpolation
   ROPT   =   -0.00040
 Ionic relaxation
   EDIFFG = -.2E-01   stopping-criterion for IOM
   NSW    =    100    number of steps for IOM
   NBLOCK =      1;   KBLOCK =    100    inner block; outer block 
   IBRION =      2    ionic relax: 0-MD 1-quasi-New 2-CG
   NFREE  =      1    steps in history (QN), initial steepest desc. (CG)
   ISIF   =      3    stress and relaxation
   IWAVPR =     11    prediction:  0-non 1-charg 2-wave 3-comb
   ISYM   =      2    0-nonsym 1-usesym 2-fastsym
   LCORR  =      T    Harris-Foulkes like correction to forces

   POTIM  = 0.5000    time-step for ionic-motion
   TEIN   =    0.0    initial temperature
   TEBEG  =    0.0;   TEEND  =   0.0 temperature during run
   SMASS  =  -3.00    Nose mass-parameter (am)
   estimated Nose-frequenzy (Omega)   =  0.10E-29 period in steps =****** mass=  -0.220E-27a.u.
   SCALEE = 1.0000    scale energy and forces
   NPACO  =    256;   APACO  = 16.0  distance and # of slots for P.C.
   PSTRESS=    0.0 pullay stress

  Mass of Ions in am
   POMASS =  24.30
  Ionic Valenz
   ZVAL   =  10.00
  Atomic Wigner-Seitz radii
   RWIGS  =  -1.00
  virtual crystal weights 
   VCA    =   1.00
   NELECT =      20.0000    total number of electrons
   NUPDOWN=      -1.0000    fix difference up-down

 DOS related values:
   EMIN   =  10.00;   EMAX   =-10.00  energy-range for DOS
   EFERMI =   0.00
   ISMEAR =     0;   SIGMA  =   0.10  broadening in eV -4-tet -1-fermi 0-gaus

 Electronic relaxation 2 (details)
   IALGO  =     38    algorithm
   LDIAG  =      T    sub-space diagonalisation (order eigenvalues)
   LSUBROT=      T    optimize rotation matrix (better conditioning)
   TURBO    =      0    0=normal 1=particle mesh
   IRESTART =      0    0=no restart 2=restart with 2 vectors
   NREBOOT  =      0    no. of reboots
   NMIN     =      0    reboot dimension
   EREF     =   0.00    reference energy to select bands
   IMIX   =      4    mixing-type and parameters
     AMIX     =   0.40;   BMIX     =  1.00
     AMIX_MAG =   1.60;   BMIX_MAG =  1.00
     AMIN     =   0.10
     WC   =   100.;   INIMIX=   1;  MIXPRE=   1

 Intra band minimization:
   WEIMIN = 0.0010     energy-eigenvalue tresh-hold
   EBREAK =  0.17E-06  absolut break condition
   DEPER  =   0.30     relativ break condition  

   TIME   =   0.40     timestep for ELM

  volume/ion in A,a.u.               =      20.95       141.35
  Fermi-wavevector in a.u.,A,eV,Ry     =   1.279496  2.417897 22.274237  1.637110
  Thomas-Fermi vector in A             =   2.411978
 
 Write flags
   LWAVE  =      T    write WAVECAR
   LCHARG =      T    write CHGCAR
   LVTOT  =      F    write LOCPOT, total local potential
   LVHAR  =      F    write LOCPOT, Hartree potential only
   LELF   =      F    write electronic localiz. function (ELF)
   LORBIT =      0    0 simple, 1 ext, 2 COOP (PROOUT)


 Dipole corrections
   LMONO  =      F    monopole corrections only (constant potential shift)
   LDIPOL =      F    correct potential (dipole corrections)
   IDIPOL =      0    1-x, 2-y, 3-z, 4-all directions 
   EPSILON=  1.0000000 bulk dielectric constant

 Exchange correlation treatment:
   GGA     =    --    GGA type
   LEXCH   =     8    internal setting for exchange type
   VOSKOWN=      0    Vosko Wilk Nusair interpolation
   LHFCALC =     F    Hartree Fock is set to
   LHFONE  =     F    Hartree Fock one center treatment
   AEXX    =    0.0000 exact exchange contribution

 Linear response parameters
   LEPSILON=     F    determine dielectric tensor
   LRPA    =     F    only Hartree local field effects (RPA)
   LNABLA  =     F    use nabla operator in PAW spheres
   LVEL    =     F    velocity operator in full k-point grid
   LINTERFAST=   F  fast interpolation
   KINTER  =     0    interpolate to denser k-point grid
   CSHIFT  =0.1000    complex shift for real part using Kramers Kronig
   OMEGAMAX=  -1.0    maximum frequency
   RTIME   =    0.100 relaxation time in fs

 Orbital magnetization related:
   ORBITALMAG=     F  switch on orbital magnetization
   LCHIMAG   =     F  perturbation theory with respect to B field
   DQ        =  0.001000  dq finite difference perturbation B field



--------------------------------------------------------------------------------------------------------


 conjugate gradient relaxation of ions
 charge density and potential will be updated during run
 spin polarized calculation
 Variant of blocked Davidson
 Davidson routine will perform the subspace rotation
 perform sub-space diagonalisation
    after iterative eigenvector-optimisation
 modified Broyden-mixing scheme, WC =      100.0
 initial mixing is a Kerker type mixing with AMIX =  0.4000 and BMIX =      1.0000
 Hartree-type preconditioning will be used
 using additional bands            5
 real space projection scheme for non local part
 calculate Harris-corrections to forces 
   (improved forces if not selfconsistent)
 use gradient corrections 
 use of overlap-Matrix (Vanderbilt PP)
 Gauss-broadening in eV      SIGMA  =   0.10


--------------------------------------------------------------------------------------------------------


  energy-cutoff  :      500.00
  volume of cell :       41.89
      direct lattice vectors                 reciprocal lattice vectors
     3.101416533  0.000000000  0.000000000     0.322433311  0.186156959  0.000000000
    -1.550708266  2.685905505  0.000000000     0.000000000  0.372313917  0.000000000
     0.000000000  0.000000000  5.029059676     0.000000000  0.000000000  0.198844330

  length of vectors
     3.101416533  3.101416533  5.029059676     0.372313917  0.372313917  0.198844330


 
 k-points in units of 2pi/SCALE and weight: Automatic mesh                          
   0.00000000  0.00000000  0.00000000       0.000
   0.02015208  0.01163481  0.00000000       0.001
   0.04030416  0.02326962  0.00000000       0.001
   0.06045625  0.03490443  0.00000000       0.001
   0.08060833  0.04653924  0.00000000       0.001
   0.10076041  0.05817405  0.00000000       0.001
   0.12091249  0.06980886  0.00000000       0.001
   0.14106457  0.08144367  0.00000000       0.001
   0.16121666  0.09307848  0.00000000       0.001
   0.02015208  0.03490443  0.00000000       0.001
   0.04030416  0.04653924  0.00000000       0.003
   0.06045625  0.05817405  0.00000000       0.003
   0.08060833  0.06980886  0.00000000       0.003
   0.10076041  0.08144367  0.00000000       0.003
   0.12091249  0.09307848  0.00000000       0.003
   0.14106457  0.10471329  0.00000000       0.003
   0.04030416  0.06980886  0.00000000       0.001
   0.06045625  0.08144367  0.00000000       0.003
   0.08060833  0.09307848  0.00000000       0.003
   0.10076041  0.10471329  0.00000000       0.003
   0.12091249  0.11634810  0.00000000       0.003
   0.14106457  0.12798291  0.00000000       0.001
   0.06045625  0.10471329  0.00000000       0.001
   0.08060833  0.11634810  0.00000000       0.003
   0.10076041  0.12798291  0.00000000       0.003
   0.12091249  0.13961772  0.00000000       0.003
   0.08060833  0.13961772  0.00000000       0.001
   0.10076041  0.15125253  0.00000000       0.003
   0.12091249  0.16288734  0.00000000       0.001
   0.10076041  0.17452215  0.00000000       0.001
   0.00000000  0.00000000  0.01242777       0.000
   0.02015208  0.01163481  0.01242777       0.003
   0.04030416  0.02326962  0.01242777       0.003
   0.06045625  0.03490443  0.01242777       0.003
   0.08060833  0.04653924  0.01242777       0.003
   0.10076041  0.05817405  0.01242777       0.003
   0.12091249  0.06980886  0.01242777       0.003
   0.14106457  0.08144367  0.01242777       0.003
   0.16121666  0.09307848  0.01242777       0.001
   0.02015208  0.03490443  0.01242777       0.003
   0.04030416  0.04653924  0.01242777       0.006
   0.06045625  0.05817405  0.01242777       0.006
   0.08060833  0.06980886  0.01242777       0.006
   0.10076041  0.08144367  0.01242777       0.006
   0.12091249  0.09307848  0.01242777       0.006
   0.14106457  0.10471329  0.01242777       0.006
   0.04030416  0.06980886  0.01242777       0.003
   0.06045625  0.08144367  0.01242777       0.006
   0.08060833  0.09307848  0.01242777       0.006
   0.10076041  0.10471329  0.01242777       0.006
   0.12091249  0.11634810  0.01242777       0.006
   0.14106457  0.12798291  0.01242777       0.003
   0.06045625  0.10471329  0.01242777       0.003
   0.08060833  0.11634810  0.01242777       0.006
   0.10076041  0.12798291  0.01242777       0.006
   0.12091249  0.13961772  0.01242777       0.006
   0.08060833  0.13961772  0.01242777       0.003
   0.10076041  0.15125253  0.01242777       0.006
   0.12091249  0.16288734  0.01242777       0.003
   0.10076041  0.17452215  0.01242777       0.003
   0.00000000  0.00000000  0.02485554       0.000
   0.02015208  0.01163481  0.02485554       0.003
   0.04030416  0.02326962  0.02485554       0.003
   0.06045625  0.03490443  0.02485554       0.003
   0.08060833  0.04653924  0.02485554       0.003
   0.10076041  0.05817405  0.02485554       0.003
   0.12091249  0.06980886  0.02485554       0.003
   0.14106457  0.08144367  0.02485554       0.003
   0.16121666  0.09307848  0.02485554       0.001
   0.02015208  0.03490443  0.02485554       0.003
   0.04030416  0.04653924  0.02485554       0.006
   0.06045625  0.05817405  0.02485554       0.006
   0.08060833  0.06980886  0.02485554       0.006
   0.10076041  0.08144367  0.02485554       0.006
   0.12091249  0.09307848  0.02485554       0.006
   0.14106457  0.10471329  0.02485554       0.006
   0.04030416  0.06980886  0.02485554       0.003
   0.06045625  0.08144367  0.02485554       0.006
   0.08060833  0.09307848  0.02485554       0.006
   0.10076041  0.10471329  0.02485554       0.006
   0.12091249  0.11634810  0.02485554       0.006
   0.14106457  0.12798291  0.02485554       0.003
   0.06045625  0.10471329  0.02485554       0.003
   0.08060833  0.11634810  0.02485554       0.006
   0.10076041  0.12798291  0.02485554       0.006
   0.12091249  0.13961772  0.02485554       0.006
   0.08060833  0.13961772  0.02485554       0.003
   0.10076041  0.15125253  0.02485554       0.006
   0.12091249  0.16288734  0.02485554       0.003
   0.10076041  0.17452215  0.02485554       0.003
   0.00000000  0.00000000  0.03728331       0.000
   0.02015208  0.01163481  0.03728331       0.003
   0.04030416  0.02326962  0.03728331       0.003
   0.06045625  0.03490443  0.03728331       0.003
   0.08060833  0.04653924  0.03728331       0.003
   0.10076041  0.05817405  0.03728331       0.003
   0.12091249  0.06980886  0.03728331       0.003
   0.14106457  0.08144367  0.03728331       0.003
   0.16121666  0.09307848  0.03728331       0.001
   0.02015208  0.03490443  0.03728331       0.003
   0.04030416  0.04653924  0.03728331       0.006
   0.06045625  0.05817405  0.03728331       0.006
   0.08060833  0.06980886  0.03728331       0.006
   0.10076041  0.08144367  0.03728331       0.006
   0.12091249  0.09307848  0.03728331       0.006
   0.14106457  0.10471329  0.03728331       0.006
   0.04030416  0.06980886  0.03728331       0.003
   0.06045625  0.08144367  0.03728331       0.006
   0.08060833  0.09307848  0.03728331       0.006
   0.10076041  0.10471329  0.03728331       0.006
   0.12091249  0.11634810  0.03728331       0.006
   0.14106457  0.12798291  0.03728331       0.003
   0.06045625  0.10471329  0.03728331       0.003
   0.08060833  0.11634810  0.03728331       0.006
   0.10076041  0.12798291  0.03728331       0.006
   0.12091249  0.13961772  0.03728331       0.006
   0.08060833  0.13961772  0.03728331       0.003
   0.10076041  0.15125253  0.03728331       0.006
   0.12091249  0.16288734  0.03728331       0.003
   0.10076041  0.17452215  0.03728331       0.003
   0.00000000  0.00000000  0.04971108       0.000
   0.02015208  0.01163481  0.04971108       0.003
   0.04030416  0.02326962  0.04971108       0.003
   0.06045625  0.03490443  0.04971108       0.003
   0.08060833  0.04653924  0.04971108       0.003
   0.10076041  0.05817405  0.04971108       0.003
   0.12091249  0.06980886  0.04971108       0.003
   0.14106457  0.08144367  0.04971108       0.003
   0.16121666  0.09307848  0.04971108       0.001
   0.02015208  0.03490443  0.04971108       0.003
   0.04030416  0.04653924  0.04971108       0.006
   0.06045625  0.05817405  0.04971108       0.006
   0.08060833  0.06980886  0.04971108       0.006
   0.10076041  0.08144367  0.04971108       0.006
   0.12091249  0.09307848  0.04971108       0.006
   0.14106457  0.10471329  0.04971108       0.006
   0.04030416  0.06980886  0.04971108       0.003
   0.06045625  0.08144367  0.04971108       0.006
   0.08060833  0.09307848  0.04971108       0.006
   0.10076041  0.10471329  0.04971108       0.006
   0.12091249  0.11634810  0.04971108       0.006
   0.14106457  0.12798291  0.04971108       0.003
   0.06045625  0.10471329  0.04971108       0.003
   0.08060833  0.11634810  0.04971108       0.006
   0.10076041  0.12798291  0.04971108       0.006
   0.12091249  0.13961772  0.04971108       0.006
   0.08060833  0.13961772  0.04971108       0.003
   0.10076041  0.15125253  0.04971108       0.006
   0.12091249  0.16288734  0.04971108       0.003
   0.10076041  0.17452215  0.04971108       0.003
   0.00000000  0.00000000  0.06213885       0.000
   0.02015208  0.01163481  0.06213885       0.003
   0.04030416  0.02326962  0.06213885       0.003
   0.06045625  0.03490443  0.06213885       0.003
   0.08060833  0.04653924  0.06213885       0.003
   0.10076041  0.05817405  0.06213885       0.003
   0.12091249  0.06980886  0.06213885       0.003
   0.14106457  0.08144367  0.06213885       0.003
   0.16121666  0.09307848  0.06213885       0.001
   0.02015208  0.03490443  0.06213885       0.003
   0.04030416  0.04653924  0.06213885       0.006
   0.06045625  0.05817405  0.06213885       0.006
   0.08060833  0.06980886  0.06213885       0.006
   0.10076041  0.08144367  0.06213885       0.006
   0.12091249  0.09307848  0.06213885       0.006
   0.14106457  0.10471329  0.06213885       0.006
   0.04030416  0.06980886  0.06213885       0.003
   0.06045625  0.08144367  0.06213885       0.006
   0.08060833  0.09307848  0.06213885       0.006
   0.10076041  0.10471329  0.06213885       0.006
   0.12091249  0.11634810  0.06213885       0.006
   0.14106457  0.12798291  0.06213885       0.003
   0.06045625  0.10471329  0.06213885       0.003
   0.08060833  0.11634810  0.06213885       0.006
   0.10076041  0.12798291  0.06213885       0.006
   0.12091249  0.13961772  0.06213885       0.006
   0.08060833  0.13961772  0.06213885       0.003
   0.10076041  0.15125253  0.06213885       0.006
   0.12091249  0.16288734  0.06213885       0.003
   0.10076041  0.17452215  0.06213885       0.003
   0.00000000  0.00000000  0.07456662       0.000
   0.02015208  0.01163481  0.07456662       0.003
   0.04030416  0.02326962  0.07456662       0.003
   0.06045625  0.03490443  0.07456662       0.003
   0.08060833  0.04653924  0.07456662       0.003
   0.10076041  0.05817405  0.07456662       0.003
   0.12091249  0.06980886  0.07456662       0.003
   0.14106457  0.08144367  0.07456662       0.003
   0.16121666  0.09307848  0.07456662       0.001
   0.02015208  0.03490443  0.07456662       0.003
   0.04030416  0.04653924  0.07456662       0.006
   0.06045625  0.05817405  0.07456662       0.006
   0.08060833  0.06980886  0.07456662       0.006
   0.10076041  0.08144367  0.07456662       0.006
   0.12091249  0.09307848  0.07456662       0.006
   0.14106457  0.10471329  0.07456662       0.006
   0.04030416  0.06980886  0.07456662       0.003
   0.06045625  0.08144367  0.07456662       0.006
   0.08060833  0.09307848  0.07456662       0.006
   0.10076041  0.10471329  0.07456662       0.006
   0.12091249  0.11634810  0.07456662       0.006
   0.14106457  0.12798291  0.07456662       0.003
   0.06045625  0.10471329  0.07456662       0.003
   0.08060833  0.11634810  0.07456662       0.006
   0.10076041  0.12798291  0.07456662       0.006
   0.12091249  0.13961772  0.07456662       0.006
   0.08060833  0.13961772  0.07456662       0.003
   0.10076041  0.15125253  0.07456662       0.006
   0.12091249  0.16288734  0.07456662       0.003
   0.10076041  0.17452215  0.07456662       0.003
   0.00000000  0.00000000  0.08699439       0.000
   0.02015208  0.01163481  0.08699439       0.003
   0.04030416  0.02326962  0.08699439       0.003
   0.06045625  0.03490443  0.08699439       0.003
   0.08060833  0.04653924  0.08699439       0.003
   0.10076041  0.05817405  0.08699439       0.003
   0.12091249  0.06980886  0.08699439       0.003
   0.14106457  0.08144367  0.08699439       0.003
   0.16121666  0.09307848  0.08699439       0.001
   0.02015208  0.03490443  0.08699439       0.003
   0.04030416  0.04653924  0.08699439       0.006
   0.06045625  0.05817405  0.08699439       0.006
   0.08060833  0.06980886  0.08699439       0.006
   0.10076041  0.08144367  0.08699439       0.006
   0.12091249  0.09307848  0.08699439       0.006
   0.14106457  0.10471329  0.08699439       0.006
   0.04030416  0.06980886  0.08699439       0.003
   0.06045625  0.08144367  0.08699439       0.006
   0.08060833  0.09307848  0.08699439       0.006
   0.10076041  0.10471329  0.08699439       0.006
   0.12091249  0.11634810  0.08699439       0.006
   0.14106457  0.12798291  0.08699439       0.003
   0.06045625  0.10471329  0.08699439       0.003
   0.08060833  0.11634810  0.08699439       0.006
   0.10076041  0.12798291  0.08699439       0.006
   0.12091249  0.13961772  0.08699439       0.006
   0.08060833  0.13961772  0.08699439       0.003
   0.10076041  0.15125253  0.08699439       0.006
   0.12091249  0.16288734  0.08699439       0.003
   0.10076041  0.17452215  0.08699439       0.003
   0.00000000  0.00000000  0.09942216       0.000
   0.02015208  0.01163481  0.09942216       0.001
   0.04030416  0.02326962  0.09942216       0.001
   0.06045625  0.03490443  0.09942216       0.001
   0.08060833  0.04653924  0.09942216       0.001
   0.10076041  0.05817405  0.09942216       0.001
   0.12091249  0.06980886  0.09942216       0.001
   0.14106457  0.08144367  0.09942216       0.001
   0.16121666  0.09307848  0.09942216       0.001
   0.02015208  0.03490443  0.09942216       0.001
   0.04030416  0.04653924  0.09942216       0.003
   0.06045625  0.05817405  0.09942216       0.003
   0.08060833  0.06980886  0.09942216       0.003
   0.10076041  0.08144367  0.09942216       0.003
   0.12091249  0.09307848  0.09942216       0.003
   0.14106457  0.10471329  0.09942216       0.003
   0.04030416  0.06980886  0.09942216       0.001
   0.06045625  0.08144367  0.09942216       0.003
   0.08060833  0.09307848  0.09942216       0.003
   0.10076041  0.10471329  0.09942216       0.003
   0.12091249  0.11634810  0.09942216       0.003
   0.14106457  0.12798291  0.09942216       0.001
   0.06045625  0.10471329  0.09942216       0.001
   0.08060833  0.11634810  0.09942216       0.003
   0.10076041  0.12798291  0.09942216       0.003
   0.12091249  0.13961772  0.09942216       0.003
   0.08060833  0.13961772  0.09942216       0.001
   0.10076041  0.15125253  0.09942216       0.003
   0.12091249  0.16288734  0.09942216       0.001
   0.10076041  0.17452215  0.09942216       0.001
 
 k-points in reciprocal lattice and weights: Automatic mesh                          
   0.00000000  0.00000000  0.00000000       0.000
   0.06250000  0.00000000  0.00000000       0.001
   0.12500000  0.00000000  0.00000000       0.001
   0.18750000  0.00000000  0.00000000       0.001
   0.25000000  0.00000000  0.00000000       0.001
   0.31250000  0.00000000  0.00000000       0.001
   0.37500000  0.00000000  0.00000000       0.001
   0.43750000  0.00000000  0.00000000       0.001
   0.50000000  0.00000000  0.00000000       0.001
   0.06250000  0.06250000  0.00000000       0.001
   0.12500000  0.06250000  0.00000000       0.003
   0.18750000  0.06250000  0.00000000       0.003
   0.25000000  0.06250000  0.00000000       0.003
   0.31250000  0.06250000  0.00000000       0.003
   0.37500000  0.06250000  0.00000000       0.003
   0.43750000  0.06250000  0.00000000       0.003
   0.12500000  0.12500000  0.00000000       0.001
   0.18750000  0.12500000  0.00000000       0.003
   0.25000000  0.12500000  0.00000000       0.003
   0.31250000  0.12500000  0.00000000       0.003
   0.37500000  0.12500000  0.00000000       0.003
   0.43750000  0.12500000  0.00000000       0.001
   0.18750000  0.18750000  0.00000000       0.001
   0.25000000  0.18750000  0.00000000       0.003
   0.31250000  0.18750000  0.00000000       0.003
   0.37500000  0.18750000  0.00000000       0.003
   0.25000000  0.25000000  0.00000000       0.001
   0.31250000  0.25000000  0.00000000       0.003
   0.37500000  0.25000000  0.00000000       0.001
   0.31250000  0.31250000  0.00000000       0.001
   0.00000000  0.00000000  0.06250000       0.000
   0.06250000  0.00000000  0.06250000       0.003
   0.12500000  0.00000000  0.06250000       0.003
   0.18750000  0.00000000  0.06250000       0.003
   0.25000000  0.00000000  0.06250000       0.003
   0.31250000  0.00000000  0.06250000       0.003
   0.37500000  0.00000000  0.06250000       0.003
   0.43750000  0.00000000  0.06250000       0.003
   0.50000000  0.00000000  0.06250000       0.001
   0.06250000  0.06250000  0.06250000       0.003
   0.12500000  0.06250000  0.06250000       0.006
   0.18750000  0.06250000  0.06250000       0.006
   0.25000000  0.06250000  0.06250000       0.006
   0.31250000  0.06250000  0.06250000       0.006
   0.37500000  0.06250000  0.06250000       0.006
   0.43750000  0.06250000  0.06250000       0.006
   0.12500000  0.12500000  0.06250000       0.003
   0.18750000  0.12500000  0.06250000       0.006
   0.25000000  0.12500000  0.06250000       0.006
   0.31250000  0.12500000  0.06250000       0.006
   0.37500000  0.12500000  0.06250000       0.006
   0.43750000  0.12500000  0.06250000       0.003
   0.18750000  0.18750000  0.06250000       0.003
   0.25000000  0.18750000  0.06250000       0.006
   0.31250000  0.18750000  0.06250000       0.006
   0.37500000  0.18750000  0.06250000       0.006
   0.25000000  0.25000000  0.06250000       0.003
   0.31250000  0.25000000  0.06250000       0.006
   0.37500000  0.25000000  0.06250000       0.003
   0.31250000  0.31250000  0.06250000       0.003
   0.00000000  0.00000000  0.12500000       0.000
   0.06250000  0.00000000  0.12500000       0.003
   0.12500000  0.00000000  0.12500000       0.003
   0.18750000  0.00000000  0.12500000       0.003
   0.25000000  0.00000000  0.12500000       0.003
   0.31250000  0.00000000  0.12500000       0.003
   0.37500000  0.00000000  0.12500000       0.003
   0.43750000  0.00000000  0.12500000       0.003
   0.50000000  0.00000000  0.12500000       0.001
   0.06250000  0.06250000  0.12500000       0.003
   0.12500000  0.06250000  0.12500000       0.006
   0.18750000  0.06250000  0.12500000       0.006
   0.25000000  0.06250000  0.12500000       0.006
   0.31250000  0.06250000  0.12500000       0.006
   0.37500000  0.06250000  0.12500000       0.006
   0.43750000  0.06250000  0.12500000       0.006
   0.12500000  0.12500000  0.12500000       0.003
   0.18750000  0.12500000  0.12500000       0.006
   0.25000000  0.12500000  0.12500000       0.006
   0.31250000  0.12500000  0.12500000       0.006
   0.37500000  0.12500000  0.12500000       0.006
   0.43750000  0.12500000  0.12500000       0.003
   0.18750000  0.18750000  0.12500000       0.003
   0.25000000  0.18750000  0.12500000       0.006
   0.31250000  0.18750000  0.12500000       0.006
   0.37500000  0.18750000  0.12500000       0.006
   0.25000000  0.25000000  0.12500000       0.003
   0.31250000  0.25000000  0.12500000       0.006
   0.37500000  0.25000000  0.12500000       0.003
   0.31250000  0.31250000  0.12500000       0.003
   0.00000000  0.00000000  0.18750000       0.000
   0.06250000  0.00000000  0.18750000       0.003
   0.12500000  0.00000000  0.18750000       0.003
   0.18750000  0.00000000  0.18750000       0.003
   0.25000000  0.00000000  0.18750000       0.003
   0.31250000  0.00000000  0.18750000       0.003
   0.37500000  0.00000000  0.18750000       0.003
   0.43750000  0.00000000  0.18750000       0.003
   0.50000000  0.00000000  0.18750000       0.001
   0.06250000  0.06250000  0.18750000       0.003
   0.12500000  0.06250000  0.18750000       0.006
   0.18750000  0.06250000  0.18750000       0.006
   0.25000000  0.06250000  0.18750000       0.006
   0.31250000  0.06250000  0.18750000       0.006
   0.37500000  0.06250000  0.18750000       0.006
   0.43750000  0.06250000  0.18750000       0.006
   0.12500000  0.12500000  0.18750000       0.003
   0.18750000  0.12500000  0.18750000       0.006
   0.25000000  0.12500000  0.18750000       0.006
   0.31250000  0.12500000  0.18750000       0.006
   0.37500000  0.12500000  0.18750000       0.006
   0.43750000  0.12500000  0.18750000       0.003
   0.18750000  0.18750000  0.18750000       0.003
   0.25000000  0.18750000  0.18750000       0.006
   0.31250000  0.18750000  0.18750000       0.006
   0.37500000  0.18750000  0.18750000       0.006
   0.25000000  0.25000000  0.18750000       0.003
   0.31250000  0.25000000  0.18750000       0.006
   0.37500000  0.25000000  0.18750000       0.003
   0.31250000  0.31250000  0.18750000       0.003
   0.00000000  0.00000000  0.25000000       0.000
   0.06250000  0.00000000  0.25000000       0.003
   0.12500000  0.00000000  0.25000000       0.003
   0.18750000  0.00000000  0.25000000       0.003
   0.25000000  0.00000000  0.25000000       0.003
   0.31250000  0.00000000  0.25000000       0.003
   0.37500000  0.00000000  0.25000000       0.003
   0.43750000  0.00000000  0.25000000       0.003
   0.50000000  0.00000000  0.25000000       0.001
   0.06250000  0.06250000  0.25000000       0.003
   0.12500000  0.06250000  0.25000000       0.006
   0.18750000  0.06250000  0.25000000       0.006
   0.25000000  0.06250000  0.25000000       0.006
   0.31250000  0.06250000  0.25000000       0.006
   0.37500000  0.06250000  0.25000000       0.006
   0.43750000  0.06250000  0.25000000       0.006
   0.12500000  0.12500000  0.25000000       0.003
   0.18750000  0.12500000  0.25000000       0.006
   0.25000000  0.12500000  0.25000000       0.006
   0.31250000  0.12500000  0.25000000       0.006
   0.37500000  0.12500000  0.25000000       0.006
   0.43750000  0.12500000  0.25000000       0.003
   0.18750000  0.18750000  0.25000000       0.003
   0.25000000  0.18750000  0.25000000       0.006
   0.31250000  0.18750000  0.25000000       0.006
   0.37500000  0.18750000  0.25000000       0.006
   0.25000000  0.25000000  0.25000000       0.003
   0.31250000  0.25000000  0.25000000       0.006
   0.37500000  0.25000000  0.25000000       0.003
   0.31250000  0.31250000  0.25000000       0.003
   0.00000000  0.00000000  0.31250000       0.000
   0.06250000  0.00000000  0.31250000       0.003
   0.12500000  0.00000000  0.31250000       0.003
   0.18750000  0.00000000  0.31250000       0.003
   0.25000000  0.00000000  0.31250000       0.003
   0.31250000  0.00000000  0.31250000       0.003
   0.37500000  0.00000000  0.31250000       0.003
   0.43750000  0.00000000  0.31250000       0.003
   0.50000000  0.00000000  0.31250000       0.001
   0.06250000  0.06250000  0.31250000       0.003
   0.12500000  0.06250000  0.31250000       0.006
   0.18750000  0.06250000  0.31250000       0.006
   0.25000000  0.06250000  0.31250000       0.006
   0.31250000  0.06250000  0.31250000       0.006
   0.37500000  0.06250000  0.31250000       0.006
   0.43750000  0.06250000  0.31250000       0.006
   0.12500000  0.12500000  0.31250000       0.003
   0.18750000  0.12500000  0.31250000       0.006
   0.25000000  0.12500000  0.31250000       0.006
   0.31250000  0.12500000  0.31250000       0.006
   0.37500000  0.12500000  0.31250000       0.006
   0.43750000  0.12500000  0.31250000       0.003
   0.18750000  0.18750000  0.31250000       0.003
   0.25000000  0.18750000  0.31250000       0.006
   0.31250000  0.18750000  0.31250000       0.006
   0.37500000  0.18750000  0.31250000       0.006
   0.25000000  0.25000000  0.31250000       0.003
   0.31250000  0.25000000  0.31250000       0.006
   0.37500000  0.25000000  0.31250000       0.003
   0.31250000  0.31250000  0.31250000       0.003
   0.00000000  0.00000000  0.37500000       0.000
   0.06250000  0.00000000  0.37500000       0.003
   0.12500000  0.00000000  0.37500000       0.003
   0.18750000  0.00000000  0.37500000       0.003
   0.25000000  0.00000000  0.37500000       0.003
   0.31250000  0.00000000  0.37500000       0.003
   0.37500000  0.00000000  0.37500000       0.003
   0.43750000  0.00000000  0.37500000       0.003
   0.50000000  0.00000000  0.37500000       0.001
   0.06250000  0.06250000  0.37500000       0.003
   0.12500000  0.06250000  0.37500000       0.006
   0.18750000  0.06250000  0.37500000       0.006
   0.25000000  0.06250000  0.37500000       0.006
   0.31250000  0.06250000  0.37500000       0.006
   0.37500000  0.06250000  0.37500000       0.006
   0.43750000  0.06250000  0.37500000       0.006
   0.12500000  0.12500000  0.37500000       0.003
   0.18750000  0.12500000  0.37500000       0.006
   0.25000000  0.12500000  0.37500000       0.006
   0.31250000  0.12500000  0.37500000       0.006
   0.37500000  0.12500000  0.37500000       0.006
   0.43750000  0.12500000  0.37500000       0.003
   0.18750000  0.18750000  0.37500000       0.003
   0.25000000  0.18750000  0.37500000       0.006
   0.31250000  0.18750000  0.37500000       0.006
   0.37500000  0.18750000  0.37500000       0.006
   0.25000000  0.25000000  0.37500000       0.003
   0.31250000  0.25000000  0.37500000       0.006
   0.37500000  0.25000000  0.37500000       0.003
   0.31250000  0.31250000  0.37500000       0.003
   0.00000000  0.00000000  0.43750000       0.000
   0.06250000  0.00000000  0.43750000       0.003
   0.12500000  0.00000000  0.43750000       0.003
   0.18750000  0.00000000  0.43750000       0.003
   0.25000000  0.00000000  0.43750000       0.003
   0.31250000  0.00000000  0.43750000       0.003
   0.37500000  0.00000000  0.43750000       0.003
   0.43750000  0.00000000  0.43750000       0.003
   0.50000000  0.00000000  0.43750000       0.001
   0.06250000  0.06250000  0.43750000       0.003
   0.12500000  0.06250000  0.43750000       0.006
   0.18750000  0.06250000  0.43750000       0.006
   0.25000000  0.06250000  0.43750000       0.006
   0.31250000  0.06250000  0.43750000       0.006
   0.37500000  0.06250000  0.43750000       0.006
   0.43750000  0.06250000  0.43750000       0.006
   0.12500000  0.12500000  0.43750000       0.003
   0.18750000  0.12500000  0.43750000       0.006
   0.25000000  0.12500000  0.43750000       0.006
   0.31250000  0.12500000  0.43750000       0.006
   0.37500000  0.12500000  0.43750000       0.006
   0.43750000  0.12500000  0.43750000       0.003
   0.18750000  0.18750000  0.43750000       0.003
   0.25000000  0.18750000  0.43750000       0.006
   0.31250000  0.18750000  0.43750000       0.006
   0.37500000  0.18750000  0.43750000       0.006
   0.25000000  0.25000000  0.43750000       0.003
   0.31250000  0.25000000  0.43750000       0.006
   0.37500000  0.25000000  0.43750000       0.003
   0.31250000  0.31250000  0.43750000       0.003
   0.00000000  0.00000000  0.50000000       0.000
   0.06250000  0.00000000  0.50000000       0.001
   0.12500000  0.00000000  0.50000000       0.001
   0.18750000  0.00000000  0.50000000       0.001
   0.25000000  0.00000000  0.50000000       0.001
   0.31250000  0.00000000  0.50000000       0.001
   0.37500000  0.00000000  0.50000000       0.001
   0.43750000  0.00000000  0.50000000       0.001
   0.50000000  0.00000000  0.50000000       0.001
   0.06250000  0.06250000  0.50000000       0.001
   0.12500000  0.06250000  0.50000000       0.003
   0.18750000  0.06250000  0.50000000       0.003
   0.25000000  0.06250000  0.50000000       0.003
   0.31250000  0.06250000  0.50000000       0.003
   0.37500000  0.06250000  0.50000000       0.003
   0.43750000  0.06250000  0.50000000       0.003
   0.12500000  0.12500000  0.50000000       0.001
   0.18750000  0.12500000  0.50000000       0.003
   0.25000000  0.12500000  0.50000000       0.003
   0.31250000  0.12500000  0.50000000       0.003
   0.37500000  0.12500000  0.50000000       0.003
   0.43750000  0.12500000  0.50000000       0.001
   0.18750000  0.18750000  0.50000000       0.001
   0.25000000  0.18750000  0.50000000       0.003
   0.31250000  0.18750000  0.50000000       0.003
   0.37500000  0.18750000  0.50000000       0.003
   0.25000000  0.25000000  0.50000000       0.001
   0.31250000  0.25000000  0.50000000       0.003
   0.37500000  0.25000000  0.50000000       0.001
   0.31250000  0.31250000  0.50000000       0.001
 
 position of ions in fractional coordinates (direct lattice) 
   0.33333334  0.66666669  0.25000000
   0.66666663  0.33333331  0.75000000
 
 position of ions in cartesian coordinates  (Angst):
   0.00000000  1.79060372  1.25726492
   1.55070817  0.89530178  3.77179476
 


--------------------------------------------------------------------------------------------------------


 k-point  1 :  0.00000.00000.0000  plane waves:    1087
 k-point  2 :  0.06250.00000.0000  plane waves:    1075
 k-point  3 :  0.12500.00000.0000  plane waves:    1068
 k-point  4 :  0.18750.00000.0000  plane waves:    1068
 k-point  5 :  0.25000.00000.0000  plane waves:    1064
 k-point  6 :  0.31250.00000.0000  plane waves:    1058
 k-point  7 :  0.37500.00000.0000  plane waves:    1064
 k-point  8 :  0.43750.00000.0000  plane waves:    1062
 k-point  9 :  0.50000.00000.0000  plane waves:    1076
 k-point 10 :  0.06250.06250.0000  plane waves:    1071
 k-point 11 :  0.12500.06250.0000  plane waves:    1063
 k-point 12 :  0.18750.06250.0000  plane waves:    1063
 k-point 13 :  0.25000.06250.0000  plane waves:    1059
 k-point 14 :  0.31250.06250.0000  plane waves:    1061
 k-point 15 :  0.37500.06250.0000  plane waves:    1063
 k-point 16 :  0.43750.06250.0000  plane waves:    1071
 k-point 17 :  0.12500.12500.0000  plane waves:    1057
 k-point 18 :  0.18750.12500.0000  plane waves:    1065
 k-point 19 :  0.25000.12500.0000  plane waves:    1061
 k-point 20 :  0.31250.12500.0000  plane waves:    1061
 k-point 21 :  0.37500.12500.0000  plane waves:    1067
 k-point 22 :  0.43750.12500.0000  plane waves:    1070
 k-point 23 :  0.18750.18750.0000  plane waves:    1062
 k-point 24 :  0.25000.18750.0000  plane waves:    1064
 k-point 25 :  0.31250.18750.0000  plane waves:    1061
 k-point 26 :  0.37500.18750.0000  plane waves:    1063
 k-point 27 :  0.25000.25000.0000  plane waves:    1060
 k-point 28 :  0.31250.25000.0000  plane waves:    1058
 k-point 29 :  0.37500.25000.0000  plane waves:    1052
 k-point 30 :  0.31250.31250.0000  plane waves:    1056
 k-point 31 :  0.00000.00000.0625  plane waves:    1093
 k-point 32 :  0.06250.00000.0625  plane waves:    1083
 k-point 33 :  0.12500.00000.0625  plane waves:    1069
 k-point 34 :  0.18750.00000.0625  plane waves:    1062
 k-point 35 :  0.25000.00000.0625  plane waves:    1055
 k-point 36 :  0.31250.00000.0625  plane waves:    1061
 k-point 37 :  0.37500.00000.0625  plane waves:    1060
 k-point 38 :  0.43750.00000.0625  plane waves:    1061
 k-point 39 :  0.50000.00000.0625  plane waves:    1070
 k-point 40 :  0.06250.06250.0625  plane waves:    1067
 k-point 41 :  0.12500.06250.0625  plane waves:    1061
 k-point 42 :  0.18750.06250.0625  plane waves:    1064
 k-point 43 :  0.25000.06250.0625  plane waves:    1063
 k-point 44 :  0.31250.06250.0625  plane waves:    1057
 k-point 45 :  0.37500.06250.0625  plane waves:    1065
 k-point 46 :  0.43750.06250.0625  plane waves:    1067
 k-point 47 :  0.12500.12500.0625  plane waves:    1064
 k-point 48 :  0.18750.12500.0625  plane waves:    1063
 k-point 49 :  0.25000.12500.0625  plane waves:    1059
 k-point 50 :  0.31250.12500.0625  plane waves:    1059
 k-point 51 :  0.37500.12500.0625  plane waves:    1061
 k-point 52 :  0.43750.12500.0625  plane waves:    1072
 k-point 53 :  0.18750.18750.0625  plane waves:    1065
 k-point 54 :  0.25000.18750.0625  plane waves:    1062
 k-point 55 :  0.31250.18750.0625  plane waves:    1062
 k-point 56 :  0.37500.18750.0625  plane waves:    1065
 k-point 57 :  0.25000.25000.0625  plane waves:    1062
 k-point 58 :  0.31250.25000.0625  plane waves:    1061
 k-point 59 :  0.37500.25000.0625  plane waves:    1057
 k-point 60 :  0.31250.31250.0625  plane waves:    1056
 k-point 61 :  0.00000.00000.1250  plane waves:    1093
 k-point 62 :  0.06250.00000.1250  plane waves:    1080
 k-point 63 :  0.12500.00000.1250  plane waves:    1066
 k-point 64 :  0.18750.00000.1250  plane waves:    1065
 k-point 65 :  0.25000.00000.1250  plane waves:    1066
 k-point 66 :  0.31250.00000.1250  plane waves:    1061
 k-point 67 :  0.37500.00000.1250  plane waves:    1056
 k-point 68 :  0.43750.00000.1250  plane waves:    1063
 k-point 69 :  0.50000.00000.1250  plane waves:    1054
 k-point 70 :  0.06250.06250.1250  plane waves:    1067
 k-point 71 :  0.12500.06250.1250  plane waves:    1070
 k-point 72 :  0.18750.06250.1250  plane waves:    1066
 k-point 73 :  0.25000.06250.1250  plane waves:    1063
 k-point 74 :  0.31250.06250.1250  plane waves:    1057
 k-point 75 :  0.37500.06250.1250  plane waves:    1060
 k-point 76 :  0.43750.06250.1250  plane waves:    1062
 k-point 77 :  0.12500.12500.1250  plane waves:    1066
 k-point 78 :  0.18750.12500.1250  plane waves:    1066
 k-point 79 :  0.25000.12500.1250  plane waves:    1061
 k-point 80 :  0.31250.12500.1250  plane waves:    1059
 k-point 81 :  0.37500.12500.1250  plane waves:    1062
 k-point 82 :  0.43750.12500.1250  plane waves:    1065
 k-point 83 :  0.18750.18750.1250  plane waves:    1060
 k-point 84 :  0.25000.18750.1250  plane waves:    1059
 k-point 85 :  0.31250.18750.1250  plane waves:    1061
 k-point 86 :  0.37500.18750.1250  plane waves:    1058
 k-point 87 :  0.25000.25000.1250  plane waves:    1062
 k-point 88 :  0.31250.25000.1250  plane waves:    1061
 k-point 89 :  0.37500.25000.1250  plane waves:    1056
 k-point 90 :  0.31250.31250.1250  plane waves:    1057
 k-point 91 :  0.00000.00000.1875  plane waves:    1080
 k-point 92 :  0.06250.00000.1875  plane waves:    1072
 k-point 93 :  0.12500.00000.1875  plane waves:    1066
 k-point 94 :  0.18750.00000.1875  plane waves:    1062
 k-point 95 :  0.25000.00000.1875  plane waves:    1072
 k-point 96 :  0.31250.00000.1875  plane waves:    1063
 k-point 97 :  0.37500.00000.1875  plane waves:    1058
 k-point 98 :  0.43750.00000.1875  plane waves:    1063
 k-point 99 :  0.50000.00000.1875  plane waves:    1062
 k-point ** :  0.06250.06250.1875  plane waves:    1066
 k-point ** :  0.12500.06250.1875  plane waves:    1073
 k-point ** :  0.18750.06250.1875  plane waves:    1067
 k-point ** :  0.25000.06250.1875  plane waves:    1066
 k-point ** :  0.31250.06250.1875  plane waves:    1060
 k-point ** :  0.37500.06250.1875  plane waves:    1056
 k-point ** :  0.43750.06250.1875  plane waves:    1062
 k-point ** :  0.12500.12500.1875  plane waves:    1072
 k-point ** :  0.18750.12500.1875  plane waves:    1065
 k-point ** :  0.25000.12500.1875  plane waves:    1061
 k-point ** :  0.31250.12500.1875  plane waves:    1056
 k-point ** :  0.37500.12500.1875  plane waves:    1063
 k-point ** :  0.43750.12500.1875  plane waves:    1060
 k-point ** :  0.18750.18750.1875  plane waves:    1063
 k-point ** :  0.25000.18750.1875  plane waves:    1058
 k-point ** :  0.31250.18750.1875  plane waves:    1057
 k-point ** :  0.37500.18750.1875  plane waves:    1060
 k-point ** :  0.25000.25000.1875  plane waves:    1059
 k-point ** :  0.31250.25000.1875  plane waves:    1062
 k-point ** :  0.37500.25000.1875  plane waves:    1060
 k-point ** :  0.31250.31250.1875  plane waves:    1058
 k-point ** :  0.00000.00000.2500  plane waves:    1050
 k-point ** :  0.06250.00000.2500  plane waves:    1068
 k-point ** :  0.12500.00000.2500  plane waves:    1070
 k-point ** :  0.18750.00000.2500  plane waves:    1071
 k-point ** :  0.25000.00000.2500  plane waves:    1073
 k-point ** :  0.31250.00000.2500  plane waves:    1066
 k-point ** :  0.37500.00000.2500  plane waves:    1061
 k-point ** :  0.43750.00000.2500  plane waves:    1072
 k-point ** :  0.50000.00000.2500  plane waves:    1064
 k-point ** :  0.06250.06250.2500  plane waves:    1072
 k-point ** :  0.12500.06250.2500  plane waves:    1071
 k-point ** :  0.18750.06250.2500  plane waves:    1069
 k-point ** :  0.25000.06250.2500  plane waves:    1065
 k-point ** :  0.31250.06250.2500  plane waves:    1062
 k-point ** :  0.37500.06250.2500  plane waves:    1063
 k-point ** :  0.43750.06250.2500  plane waves:    1062
 k-point ** :  0.12500.12500.2500  plane waves:    1072
 k-point ** :  0.18750.12500.2500  plane waves:    1068
 k-point ** :  0.25000.12500.2500  plane waves:    1063
 k-point ** :  0.31250.12500.2500  plane waves:    1058
 k-point ** :  0.37500.12500.2500  plane waves:    1063
 k-point ** :  0.43750.12500.2500  plane waves:    1060
 k-point ** :  0.18750.18750.2500  plane waves:    1067
 k-point ** :  0.25000.18750.2500  plane waves:    1059
 k-point ** :  0.31250.18750.2500  plane waves:    1059
 k-point ** :  0.37500.18750.2500  plane waves:    1057
 k-point ** :  0.25000.25000.2500  plane waves:    1057
 k-point ** :  0.31250.25000.2500  plane waves:    1063
 k-point ** :  0.37500.25000.2500  plane waves:    1064
 k-point ** :  0.31250.31250.2500  plane waves:    1058
 k-point ** :  0.00000.00000.3125  plane waves:    1056
 k-point ** :  0.06250.00000.3125  plane waves:    1068
 k-point ** :  0.12500.00000.3125  plane waves:    1069
 k-point ** :  0.18750.00000.3125  plane waves:    1068
 k-point ** :  0.25000.00000.3125  plane waves:    1069
 k-point ** :  0.31250.00000.3125  plane waves:    1066
 k-point ** :  0.37500.00000.3125  plane waves:    1066
 k-point ** :  0.43750.00000.3125  plane waves:    1066
 k-point ** :  0.50000.00000.3125  plane waves:    1064
 k-point ** :  0.06250.06250.3125  plane waves:    1067
 k-point ** :  0.12500.06250.3125  plane waves:    1071
 k-point ** :  0.18750.06250.3125  plane waves:    1070
 k-point ** :  0.25000.06250.3125  plane waves:    1072
 k-point ** :  0.31250.06250.3125  plane waves:    1064
 k-point ** :  0.37500.06250.3125  plane waves:    1060
 k-point ** :  0.43750.06250.3125  plane waves:    1065
 k-point ** :  0.12500.12500.3125  plane waves:    1067
 k-point ** :  0.18750.12500.3125  plane waves:    1066
 k-point ** :  0.25000.12500.3125  plane waves:    1064
 k-point ** :  0.31250.12500.3125  plane waves:    1056
 k-point ** :  0.37500.12500.3125  plane waves:    1058
 k-point ** :  0.43750.12500.3125  plane waves:    1058
 k-point ** :  0.18750.18750.3125  plane waves:    1065
 k-point ** :  0.25000.18750.3125  plane waves:    1059
 k-point ** :  0.31250.18750.3125  plane waves:    1058
 k-point ** :  0.37500.18750.3125  plane waves:    1062
 k-point ** :  0.25000.25000.3125  plane waves:    1063
 k-point ** :  0.31250.25000.3125  plane waves:    1060
 k-point ** :  0.37500.25000.3125  plane waves:    1058
 k-point ** :  0.31250.31250.3125  plane waves:    1061
 k-point ** :  0.00000.00000.3750  plane waves:    1050
 k-point ** :  0.06250.00000.3750  plane waves:    1060
 k-point ** :  0.12500.00000.3750  plane waves:    1069
 k-point ** :  0.18750.00000.3750  plane waves:    1072
 k-point ** :  0.25000.00000.3750  plane waves:    1071
 k-point ** :  0.31250.00000.3750  plane waves:    1065
 k-point ** :  0.37500.00000.3750  plane waves:    1064
 k-point ** :  0.43750.00000.3750  plane waves:    1065
 k-point ** :  0.50000.00000.3750  plane waves:    1060
 k-point ** :  0.06250.06250.3750  plane waves:    1067
 k-point ** :  0.12500.06250.3750  plane waves:    1072
 k-point ** :  0.18750.06250.3750  plane waves:    1074
 k-point ** :  0.25000.06250.3750  plane waves:    1068
 k-point ** :  0.31250.06250.3750  plane waves:    1063
 k-point ** :  0.37500.06250.3750  plane waves:    1063
 k-point ** :  0.43750.06250.3750  plane waves:    1064
 k-point ** :  0.12500.12500.3750  plane waves:    1073
 k-point ** :  0.18750.12500.3750  plane waves:    1068
 k-point ** :  0.25000.12500.3750  plane waves:    1067
 k-point ** :  0.31250.12500.3750  plane waves:    1060
 k-point ** :  0.37500.12500.3750  plane waves:    1060
 k-point ** :  0.43750.12500.3750  plane waves:    1066
 k-point ** :  0.18750.18750.3750  plane waves:    1066
 k-point ** :  0.25000.18750.3750  plane waves:    1057
 k-point ** :  0.31250.18750.3750  plane waves:    1062
 k-point ** :  0.37500.18750.3750  plane waves:    1061
 k-point ** :  0.25000.25000.3750  plane waves:    1063
 k-point ** :  0.31250.25000.3750  plane waves:    1060
 k-point ** :  0.37500.25000.3750  plane waves:    1054
 k-point ** :  0.31250.31250.3750  plane waves:    1056
 k-point ** :  0.00000.00000.4375  plane waves:    1056
 k-point ** :  0.06250.00000.4375  plane waves:    1057
 k-point ** :  0.12500.00000.4375  plane waves:    1075
 k-point ** :  0.18750.00000.4375  plane waves:    1076
[...]
      4     -39.7488      1.00000
      5     -39.7225      1.00000
      6     -39.7225      1.00000
      7     -39.7189      1.00000
      8     -39.7189      1.00000
      9       0.4203      1.00000
     10       0.4203      1.00000
     11       4.1693      0.00000
     12       4.1693      0.00000
     13       9.9325      0.00000
     14       9.9325      0.00000
     15      11.7869      0.00000

 k-point 256 :       0.4375    0.0625    0.5000
  band No.  band energies     occupation 
      1     -72.9507      1.00000
      2     -72.9507      1.00000
      3     -39.7509      1.00000
      4     -39.7509      1.00000
      5     -39.7227      1.00000
      6     -39.7227      1.00000
      7     -39.7191      1.00000
      8     -39.7191      1.00000
      9       1.4289      1.00000
     10       1.4289      1.00000
     11       2.8859      0.58476
     12       2.8859      0.58476
     13       9.8935      0.00000
     14       9.8935      0.00000
     15      12.3922      0.00000

 k-point 257 :       0.1250    0.1250    0.5000
  band No.  band energies     occupation 
      1     -72.9552      1.00000
      2     -72.9552      1.00000
      3     -39.7361      1.00000
      4     -39.7361      1.00000
      5     -39.7197      1.00000
      6     -39.7197      1.00000
      7     -39.7152      1.00000
      8     -39.7152      1.00000
      9      -1.9941      1.00000
     10      -1.9941      1.00000
     11       8.7993      0.00000
     12       8.7993      0.00000
     13       9.7283      0.00000
     14       9.7283      0.00000
     15      11.4129      0.00000

 k-point 258 :       0.1875    0.1250    0.5000
  band No.  band energies     occupation 
      1     -72.9543      1.00000
      2     -72.9543      1.00000
      3     -39.7394      1.00000
      4     -39.7394      1.00000
      5     -39.7215      1.00000
      6     -39.7215      1.00000
      7     -39.7168      1.00000
      8     -39.7168      1.00000
      9      -1.4402      1.00000
     10      -1.4402      1.00000
     11       8.0999      0.00000
     12       8.0999      0.00000
     13       9.0184      0.00000
     14       9.0184      0.00000
     15      10.8772      0.00000

 k-point 259 :       0.2500    0.1250    0.5000
  band No.  band energies     occupation 
      1     -72.9519      1.00000
      2     -72.9519      1.00000
      3     -39.7430      1.00000
      4     -39.7430      1.00000
      5     -39.7229      1.00000
      6     -39.7229      1.00000
      7     -39.7177      1.00000
      8     -39.7177      1.00000
      9      -0.7342      1.00000
     10      -0.7342      1.00000
     11       6.5430      0.00000
     12       6.5430      0.00000
     13       8.8694      0.00000
     14       8.8694      0.00000
     15      11.0253      0.00000

 k-point 260 :       0.3125    0.1250    0.5000
  band No.  band energies     occupation 
      1     -72.9506      1.00000
      2     -72.9506      1.00000
      3     -39.7465      1.00000
      4     -39.7465      1.00000
      5     -39.7242      1.00000
      6     -39.7242      1.00000
      7     -39.7182      1.00000
      8     -39.7182      1.00000
      9       0.1166      1.00000
     10       0.1166      1.00000
     11       5.0358      0.00000
     12       5.0358      0.00000
     13       8.6395      0.00000
     14       8.6395      0.00000
     15      11.6073      0.00000

 k-point 261 :       0.3750    0.1250    0.5000
  band No.  band energies     occupation 
      1     -72.9508      1.00000
      2     -72.9508      1.00000
      3     -39.7492      1.00000
      4     -39.7492      1.00000
      5     -39.7254      1.00000
      6     -39.7254      1.00000
      7     -39.7184      1.00000
      8     -39.7184      1.00000
      9       1.0934      1.00000
     10       1.0934      1.00000
     11       3.6557      0.00000
     12       3.6557      0.00000
     13       8.4672      0.00000
     14       8.4672      0.00000
     15      12.4164      0.00000

 k-point 262 :       0.4375    0.1250    0.5000
  band No.  band energies     occupation 
      1     -72.9512      1.00000
      2     -72.9512      1.00000
      3     -39.7503      1.00000
      4     -39.7503      1.00000
      5     -39.7257      1.00000
      6     -39.7257      1.00000
      7     -39.7185      1.00000
      8     -39.7185      1.00000
      9       1.9076      1.00000
     10       1.9076      1.00000
     11       2.7059      0.99711
     12       2.7059      0.99711
     13       8.4059      0.00000
     14       8.4059      0.00000
     15      13.2431      0.00000

 k-point 263 :       0.1875    0.1875    0.5000
  band No.  band energies     occupation 
      1     -72.9506      1.00000
      2     -72.9506      1.00000
      3     -39.7418      1.00000
      4     -39.7418      1.00000
      5     -39.7231      1.00000
      6     -39.7231      1.00000
      7     -39.7174      1.00000
      8     -39.7174      1.00000
      9      -0.8119      1.00000
     10      -0.8119      1.00000
     11       7.2609      0.00000
     12       7.2609      0.00000
     13       8.0884      0.00000
     14       8.0884      0.00000
     15      10.9096      0.00000

 k-point 264 :       0.2500    0.1875    0.5000
  band No.  band energies     occupation 
      1     -72.9507      1.00000
      2     -72.9507      1.00000
      3     -39.7448      1.00000
      4     -39.7448      1.00000
      5     -39.7256      1.00000
      6     -39.7256      1.00000
      7     -39.7180      1.00000
      8     -39.7180      1.00000
      9      -0.0365      1.00000
     10      -0.0365      1.00000
     11       5.9532      0.00000
     12       5.9532      0.00000
     13       7.4909      0.00000
     14       7.4909      0.00000
     15      11.4754      0.00000

 k-point 265 :       0.3125    0.1875    0.5000
  band No.  band energies     occupation 
      1     -72.9508      1.00000
      2     -72.9508      1.00000
      3     -39.7471      1.00000
      4     -39.7471      1.00000
      5     -39.7278      1.00000
      6     -39.7278      1.00000
      7     -39.7182      1.00000
      8     -39.7182      1.00000
      9       0.8764      1.00000
     10       0.8764      1.00000
     11       4.5666      0.00000
     12       4.5666      0.00000
     13       7.1605      0.00000
     14       7.1605      0.00000
     15      12.2702      0.00000

 k-point 266 :       0.3750    0.1875    0.5000
  band No.  band energies     occupation 
      1     -72.9502      1.00000
      2     -72.9502      1.00000
      3     -39.7482      1.00000
      4     -39.7482      1.00000
      5     -39.7290      1.00000
      6     -39.7290      1.00000
      7     -39.7181      1.00000
      8     -39.7181      1.00000
      9       1.8713      1.00000
     10       1.8713      1.00000
     11       3.3193      0.00000
     12       3.3193      0.00000
     13       7.0025      0.00000
     14       7.0025      0.00000
     15      13.2075      0.00000

 k-point 267 :       0.2500    0.2500    0.5000
  band No.  band energies     occupation 
      1     -72.9505      1.00000
      2     -72.9505      1.00000
      3     -39.7459      1.00000
      4     -39.7459      1.00000
      5     -39.7289      1.00000
      6     -39.7289      1.00000
      7     -39.7182      1.00000
      8     -39.7182      1.00000
      9       0.8028      1.00000
     10       0.8028      1.00000
     11       5.2598      0.00000
     12       5.2598      0.00000
     13       6.3346      0.00000
     14       6.3346      0.00000
     15      12.2122      0.00000

 k-point 268 :       0.3125    0.2500    0.5000
  band No.  band energies     occupation 
      1     -72.9508      1.00000
      2     -72.9508      1.00000
      3     -39.7465      1.00000
      4     -39.7465      1.00000
      5     -39.7316      1.00000
      6     -39.7316      1.00000
      7     -39.7182      1.00000
      8     -39.7182      1.00000
      9       1.7616      1.00000
     10       1.7616      1.00000
     11       4.1970      0.00000
     12       4.1970      0.00000
     13       5.8149      0.00000
     14       5.8149      0.00000
     15      13.1104      0.00000

 k-point 269 :       0.3750    0.2500    0.5000
  band No.  band energies     occupation 
      1     -72.9502      1.00000
      2     -72.9502      1.00000
      3     -39.7463      1.00000
      4     -39.7463      1.00000
      5     -39.7326      1.00000
      6     -39.7326      1.00000
      7     -39.7181      1.00000
      8     -39.7181      1.00000
      9       2.5525      1.00000
     10       2.5525      1.00000
     11       3.3237      0.00000
     12       3.3237      0.00000
     13       5.6878      0.00000
     14       5.6878      0.00000
     15      13.9473      0.00000

 k-point 270 :       0.3125    0.3125    0.5000
  band No.  band energies     occupation 
      1     -72.9493      1.00000
      2     -72.9493      1.00000
      3     -39.7450      1.00000
      4     -39.7450      1.00000
      5     -39.7343      1.00000
      6     -39.7343      1.00000
      7     -39.7180      1.00000
      8     -39.7180      1.00000
      9       2.7010      0.99766
     10       2.7010      0.99766
     11       3.7505      0.00000
     12       3.7505      0.00000
     13       4.9013      0.00000
     14       4.9013      0.00000
     15      14.0504      0.00000


--------------------------------------------------------------------------------------------------------


 soft charge-density along one line, spin component           1
         0         1         2         3         4         5         6         7         8         9
 total charge-density along one line
 
 soft charge-density along one line, spin component           2
         0         1         2         3         4         5         6         7         8         9
 total charge-density along one line
 
 pseudopotential strength for first ion, spin component:           1
-79.825  21.493   0.000   0.000   0.000   0.000   0.000   0.000
 21.493 -24.708   0.000   0.000   0.000   0.000   0.000   0.000
  0.000   0.000 -53.908   0.000   0.000  10.026   0.000   0.000
  0.000   0.000   0.000 -53.909   0.000   0.000  10.027   0.000
  0.000   0.000   0.000   0.000 -53.908   0.000   0.000  10.026
  0.000   0.000  10.026   0.000   0.000   7.009   0.000   0.000
  0.000   0.000   0.000  10.027   0.000   0.000   7.009   0.000
  0.000   0.000   0.000   0.000  10.026   0.000   0.000   7.009
  0.000   0.000   0.000   0.000   0.000   0.000   0.000   0.000
  0.000   0.000   0.000   0.000   0.000   0.000   0.000   0.000
  0.000   0.000   0.000   0.000   0.000   0.000   0.000   0.000
  0.000   0.000   0.000   0.000   0.000   0.000   0.000   0.000
  0.000   0.000   0.000   0.000   0.000   0.000   0.000   0.000
 pseudopotential strength for first ion, spin component:           2
-79.825  21.493   0.000   0.000   0.000   0.000   0.000   0.000
 21.493 -24.708   0.000   0.000   0.000   0.000   0.000   0.000
  0.000   0.000 -53.908   0.000   0.000  10.027   0.000   0.000
  0.000   0.000   0.000 -53.909   0.000   0.000  10.027   0.000
  0.000   0.000   0.000   0.000 -53.908   0.000   0.000  10.027
  0.000   0.000  10.027   0.000   0.000   7.009   0.000   0.000
  0.000   0.000   0.000  10.027   0.000   0.000   7.009   0.000
  0.000   0.000   0.000   0.000  10.027   0.000   0.000   7.009
  0.000   0.000   0.000   0.000   0.000   0.000   0.000   0.000
  0.000   0.000   0.000   0.000   0.000   0.000   0.000   0.000
  0.000   0.000   0.000   0.000   0.000   0.000   0.000   0.000
  0.000   0.000   0.000   0.000   0.000   0.000   0.000   0.000
  0.000   0.000   0.000   0.000   0.000   0.000   0.000   0.000
 total augmentation occupancy for first ion, spin component:           1
  2.000   0.000   0.000   0.000   0.000   0.000   0.000   0.000   0.000   0.000   0.000   0.000   0.000
  0.000   1.125   0.000   0.000   0.000   0.000   0.000   0.000   0.000   0.000   0.000   0.000   0.000
  0.000   0.000   2.002   0.000   0.000  -0.001   0.000   0.000   0.000   0.000   0.000   0.000   0.000
  0.000   0.000   0.000   2.002   0.000   0.000  -0.001   0.000   0.000   0.000   0.000   0.000   0.000
  0.000   0.000   0.000   0.000   2.002   0.000   0.000  -0.001   0.000   0.000   0.000   0.000   0.000
  0.000   0.000  -0.001   0.000   0.000   0.034   0.000   0.000   0.000   0.000   0.000   0.000  -0.002
  0.000   0.000   0.000  -0.001   0.000   0.000   0.034   0.000   0.000   0.000   0.000   0.000   0.000
  0.000   0.000   0.000   0.000  -0.001   0.000   0.000   0.034  -0.002   0.000   0.000   0.000   0.000
  0.000   0.000   0.000   0.000   0.000   0.000   0.000  -0.002   0.002   0.000   0.000   0.000   0.000
  0.000   0.000   0.000   0.000   0.000   0.000   0.000   0.000   0.000   0.002   0.000   0.000   0.000
  0.000   0.000   0.000   0.000   0.000   0.000   0.000   0.000   0.000   0.000   0.003   0.000   0.000
  0.000   0.000   0.000   0.000   0.000   0.000   0.000   0.000   0.000   0.000   0.000   0.002   0.000
  0.000   0.000   0.000   0.000   0.000  -0.002   0.000   0.000   0.000   0.000   0.000   0.000   0.002
 total augmentation occupancy for first ion, spin component:           2
  0.000   0.000   0.000   0.000   0.000   0.000   0.000   0.000   0.000   0.000   0.000   0.000   0.000
  0.000   0.000   0.000   0.000   0.000   0.000   0.000   0.000   0.000   0.000   0.000   0.000   0.000
  0.000   0.000   0.000   0.000   0.000   0.000   0.000   0.000   0.000   0.000   0.000   0.000   0.000
  0.000   0.000   0.000   0.000   0.000   0.000   0.000   0.000   0.000   0.000   0.000   0.000   0.000
  0.000   0.000   0.000   0.000   0.000   0.000   0.000   0.000   0.000   0.000   0.000   0.000   0.000
  0.000   0.000   0.000   0.000   0.000   0.000   0.000   0.000   0.000   0.000   0.000   0.000   0.000
  0.000   0.000   0.000   0.000   0.000   0.000   0.000   0.000   0.000   0.000   0.000   0.000   0.000
  0.000   0.000   0.000   0.000   0.000   0.000   0.000   0.000   0.000   0.000   0.000   0.000   0.000
  0.000   0.000   0.000   0.000   0.000   0.000   0.000   0.000   0.000   0.000   0.000   0.000   0.000
  0.000   0.000   0.000   0.000   0.000   0.000   0.000   0.000   0.000   0.000   0.000   0.000   0.000
  0.000   0.000   0.000   0.000   0.000   0.000   0.000   0.000   0.000   0.000   0.000   0.000   0.000
  0.000   0.000   0.000   0.000   0.000   0.000   0.000   0.000   0.000   0.000   0.000   0.000   0.000
  0.000   0.000   0.000   0.000   0.000   0.000   0.000   0.000   0.000   0.000   0.000   0.000   0.000


------------------------ aborting loop because EDIFF is reached ----------------------------------------


    CHARGE:  cpu time    8.07: real time    8.07
    FORLOC:  cpu time    0.01: real time    0.01
    FORNL :  cpu time  100.23: real time   25.27
    STRESS:  cpu time  300.68: real time   75.92
    FORHAR:  cpu time    0.13: real time    0.03
    MIXING:  cpu time    0.00: real time    0.01

  FORCE on cell =-STRESS in cart. coord.  units (eV):
  Direction    XX          YY          ZZ          XY          YZ          ZX
  --------------------------------------------------------------------------------------
  Alpha Z    69.25531    69.25531    69.25531
  Ewald    -504.71779  -504.71778  -499.27244     0.00000     0.00000     0.00000
  Hartree   394.14732   394.14732   397.79944     0.00000     0.00000     0.00000
  E(xc)    -138.47732  -138.47740  -138.47737    -0.00006     0.00000     0.00000
  Local      43.20445    43.20446    34.25457     0.00003     0.00000     0.00000
  n-local  -341.76559  -342.72517  -342.24761     3.17233    -0.50637    -0.71056
  augment    40.50383    40.50371    40.48411    -0.00008     0.00001     0.00000
  Kinetic   439.83791   436.77707   438.16867     6.67160    -1.59441    -2.04988
  Fock        0.00000     0.00000     0.00000     0.00000     0.00000     0.00000
  -------------------------------------------------------------------------------------
  Total      -0.02218    -0.02218    -0.03531     0.00000     0.00000     0.00000
  in kB      -0.84811    -0.84811    -1.35030     0.00000     0.00000     0.00000
  external pressure =       -1.02 kB  Pullay stress =        0.00 kB


 VOLUME and BASIS-vectors are now :
 -----------------------------------------------------------------------------
  energy-cutoff  :      500.00
  volume of cell :       41.89
      direct lattice vectors                 reciprocal lattice vectors
     3.101416533  0.000000000  0.000000000     0.322433311  0.186156959  0.000000000
    -1.550708266  2.685905505  0.000000000     0.000000000  0.372313917  0.000000000
     0.000000000  0.000000000  5.029059676     0.000000000  0.000000000  0.198844330

  length of vectors
     3.101416533  3.101416533  5.029059676     0.372313917  0.372313917  0.198844330


 FORCES acting on ions
    electron-ion (+dipol)            ewald-force                    non-local-force                 convergence-correction
 -----------------------------------------------------------------------------------------------
   0.483E-05 -.146E-03 0.113E-10   -.183E-05 -.223E-05 -.211E-13   0.156E-16 0.000E+00 0.000E+00   0.548E-08 0.539E-07 -.345E-12
   0.245E-03 0.146E-03 -.212E-10   0.183E-05 0.223E-05 0.211E-13   -.130E-16 0.000E+00 -.347E-17   -.862E-07 -.539E-07 0.165E-12
 -----------------------------------------------------------------------------------------------
   0.250E-03 -.182E-10 -.990E-11   0.752E-14 0.594E-14 0.000E+00   0.260E-17 0.000E+00 -.347E-17   -.807E-07 -.362E-11 -.180E-12
 
 
 POSITION                                       TOTAL-FORCE (eV/Angst)
 -----------------------------------------------------------------------------------
      0.00000      1.79060      1.25726         0.000000      0.000000      0.000000
      1.55071      0.89530      3.77179         0.000000      0.000000      0.000000
 -----------------------------------------------------------------------------------
    total drift:                                0.000250      0.000000      0.000000


--------------------------------------------------------------------------------------------------------



  FREE ENERGIE OF THE ION-ELECTRON SYSTEM (eV)
  ---------------------------------------------------
  free  energy   TOTEN  =        -2.986564 eV

  energy  without entropy=       -2.981630  energy(sigma->0) =       -2.984097
 


--------------------------------------------------------------------------------------------------------


    POTLOK:  cpu time    0.48: real time    0.48


--------------------------------------------------------------------------------------------------------




--------------------------------------------------------------------------------------------------------


  
 reached required accuracy - stopping structural energy minimisation
 writing wavefunctions
     LOOP+:  cpu time 5487.75: real time 1457.57
    4ORBIT:  cpu time    0.00: real time    0.00

 total amount of memory used by VASP on root node   191064. kBytes
========================================================================

   base      :      30000. kBytes
   nonlr-proj:        613. kBytes
   fftplans  :       4448. kBytes
   grid      :      10949. kBytes
   one-center:         32. kBytes
   wavefun   :     145022. kBytes
 
  
  
 General timing and accounting informations for this job:
 ========================================================
  
                  Total CPU time used (sec):     5525.321
                            User time (sec):     5276.190
                          System time (sec):      249.132
                         Elapsed time (sec):     1469.290
  
                   Maximum memory used (kb):      470192.
                   Average memory used (kb):           0.
  
                          Minor page faults:     37283501
                          Major page faults:            0
                 Voluntary context switches:        28272
