  vasp.5.2.12 11Nov11 complex                                                    
    
  executed on             LinuxIFC date 2012.10.23  05:14:40
  running on    1 nodes
  distr:  one band on    1 nodes,    1 groups


--------------------------------------------------------------------------------------------------------


  INCAR:
  POTCAR:    PAW_PBE Mg_sv 12Apr2007               
  POTCAR:    PAW_PBE Mg_sv 12Apr2007               
      VRHFIN =Mg: p6s2                                                             
      LEXCH  = PE                                                                  
      EATOM  =  1728.4457 eV,  127.0372 Ry                                         
                                                                                                                                                                
      TITEL  = PAW_PBE Mg_sv 12Apr2007                                             
      LULTRA =        F    use ultrasoft PP ?                                      
      IUNSCR =        0    unscreen: 0-lin 1-nonlin 2-no                           
      RPACOR =    0.000    partial core radius                                     
      POMASS =   24.305; ZVAL   =   10.000    mass and valenz                      
      RCORE  =    1.700    outmost cutoff radius                                   
      RWIGS  =    1.800; RWIGS  =    0.953    wigner-seitz radius (au A)           
      ENMAX  =  495.223; ENMIN  =  371.417 eV                                      
      RCLOC  =    1.506    cutoff for local pot                                    
      LCOR   =        T    correct aug charges                                     
      LPAW   =        T    paw PP                                                  
      EAUG   =  980.156                                                            
      RMAX   =    1.743    core radius for proj-oper                               
      RAUG   =    1.300    factor for augmentation sphere                          
      RDEP   =    1.781    radius for radial grids                                 
      RDEPT  =    1.300    core radius for aug-charge                              
                                                                                                                                                                
      Atomic configuration                                                         
        5 entries                                                                   
          n  l   j            E        occ.                                          
          1  0  0.50     -1259.6230   2.0000                                         
          2  0  0.50       -79.8442   2.0000                                         
          3  0  0.50        -4.7055   2.0000                                         
          2  1  1.50       -46.6121   6.0000                                         
          3  2  1.50        -1.3606   0.0000                                         
      Description                                                                  
          l       E           TYP  RCUT    TYP  RCUT                                 
          0    -79.8442259     23  1.200                                             
          0     -4.7054661     23  1.700                                             
          1    -46.6121068     23  1.500                                             
          1      6.8029130     23  1.500                                             
          2     -1.3605826     23  1.700                                             
    local pseudopotential read in
    atomic valenz-charges read in
    non local Contribution for L=           0  read in
        real space projection operators read in
    non local Contribution for L=           0  read in
        real space projection operators read in
    non local Contribution for L=           1  read in
        real space projection operators read in
    non local Contribution for L=           1  read in
        real space projection operators read in
    non local Contribution for L=           2  read in
        real space projection operators read in
        PAW grid and wavefunctions read in
  
      number of l-projection  operators is LMAX  =           5
      number of lm-projection operators is LMMAX =          13
  

  ----------------------------------------------------------------------------- 
|                                                                             |
|  ADVICE TO THIS USER RUNNING 'VASP/VAMP'   (HEAR YOUR MASTER'S VOICE ...):  |
|                                                                             |
|      You have a (more or less) 'small supercell' and for smaller cells      |
|      it is recommended  to use the reciprocal-space projection scheme!      |
|      The real space optimization is not  efficient for small cells and it   |
|      is also less accurate ...                                              |
|      Therefore set LREAL=.FALSE. in the  INCAR file                         |
|                                                                             |
  ----------------------------------------------------------------------------- 

  Optimization of the real space projectors (new method)

  maximal supplied QI-value         = 22.11
  optimisation between [QCUT,QGAM] = [ 11.28, 28.52] = [ 35.61,227.80] Ry 
  Optimized for a Real-space Cutoff    1.02 Angstroem

      l    n(q)    QCUT    max X(q) W(low)/X(q) W(high)/X(q)  e(spline) 
      0      9    11.276     8.730    0.22E-04    0.28E-04    0.18E-07
      0      9    11.276     8.910    0.31E-04    0.40E-04    0.29E-07
      1      8    11.276     2.513    0.12E-04    0.20E-04    0.44E-07
      1      8    11.276     3.341    0.12E-04    0.86E-04    0.15E-06
      2      8    11.276     3.683    0.15E-03    0.75E-04    0.42E-07
    PAW_PBE Mg_sv 12Apr2007               :
  energy of atom  1       EATOM=-1728.4457
  kinetic energy error for atom=    0.1108 (will be added to EATOM!!)
  
  
  POSCAR: Mg                                      
    positions in direct lattice
    velocities in cartesian coordinates
  exchange correlation table for  LEXCH =        8
      RHO(1)=    0.500       N(1)  =     2000
      RHO(2)=  100.500       N(2)  =     4000
  


--------------------------------------------------------------------------------------------------------


  ion  position               nearest neighbor table
      1  0.333  0.667  0.250-
      2  0.667  0.333  0.750-
  
    LATTYP: Found a hexagonal cell.
  ALAT       =     3.5744713269
  C/A-ratio  =     1.1188959414
    
    Lattice vectors:
    
  A1 = (   3.5744713270,   0.0000000000,   0.0000000000)
  A2 = (  -1.7872356635,   3.0955829742,   0.0000000000)
  A3 = (   0.0000000000,   0.0000000000,   3.9994614602)
  Subroutine PRICEL returns:
  Original cell was already a primitive cell.
  

Analysis of symmetry for initial positions (statically):

  Routine SETGRP: Setting up the symmetry group for a 
  hexagonal supercell.


  Subroutine GETGRP returns: Found 24 space group operations
  (whereof 12 operations were pure point group operations)
  out of a pool of 24 trial point group operations.


The static configuration has the point symmetry D_3d.
  The point group associated with its full space group is D_6h.

Analysis of symmetry for dynamics (positions and initial velocities):

  Subroutine DYNSYM returns: Found 24 space group operations
  (whereof 12 operations were pure point group operations)
  out of a pool of 24 trial space group operations
  (whereof 12 operations were pure point group operations)
  and found also     1 'primitive' translations


The dynamic configuration has the point symmetry D_3d.
  The point group associated with its full space group is D_6h.

Analysis of magnetic symmetry:

  Subroutine MAGSYM returns: Found 24 space group operations
  (whereof 12 operations were pure point group operations)
  out of a pool of 24 trial space group operations
  (whereof 12 operations were pure point group operations)
  and found also     1 'primitive' translations


The magnetic configuration has the point symmetry D_3d.
  The point group associated with its full space group is D_6h.
  
  
  KPOINTS: Automatic mesh                          

Automatic generation of k-mesh.
  
  Subroutine IBZKPT returns following result:
  ===========================================
  
  Found      4 irreducible k-points:
  
  Following reciprocal coordinates:
                        Coordinates               Weight
    0.000000  0.000000  0.000000      1.000000
    0.500000  0.000000  0.000000      3.000000
    0.000000  0.000000  0.500000      1.000000
    0.500000  0.000000  0.500000      3.000000
  
  Following cartesian coordinates:
                        Coordinates               Weight
    0.000000  0.000000  0.000000      1.000000
    0.139881  0.080760  0.000000      3.000000
    0.000000  0.000000  0.125017      1.000000
    0.139881  0.080760  0.125017      3.000000
  


--------------------------------------------------------------------------------------------------------




  Dimension of arrays:
      k-points           NKPTS =      4   k-points in BZ     NKDIM =      4   number of bands    NBANDS=     15
      number of dos      NEDOS =    301   number of ions     NIONS =      2
      non local maximal  LDIM  =      5   non local SUM 2l+1 LMDIM =     13
      total plane-waves  NPLWV =  23520
      max r-space proj   IRMAX =   2394   max aug-charges    IRDMAX=   4916
      dimension x,y,z NGX =    28 NGY =   28 NGZ =   30
      dimension x,y,z NGXF=    48 NGYF=   48 NGZF=   54
      support grid    NGXF=    48 NGYF=   48 NGZF=   54
      ions per type =               2
  NGX,Y,Z   is equivalent  to a cutoff of  13.02, 13.02, 12.47 a.u.
  NGXF,Y,Z  is equivalent  to a cutoff of  22.32, 22.32, 22.45 a.u.


  I would recommend the setting:
      dimension x,y,z NGX =    26 NGY =   26 NGZ =   29
  SYSTEM =  Untitled (VASP)                         
  POSCAR =  Mg                                      

  Startparameter for this run:
      NWRITE =      2    write-flag & timer
      PREC   = high      normal or accurate (medium, high low for compatibility)
      ISTART =      0    job   : 0-new  1-cont  2-samecut
      ICHARG =      2    charge: 1-file 2-atom 10-const
      ISPIN  =      2    spin polarized calculation?
      LNONCOLLINEAR =      F non collinear calculations
      LSORBIT =      F    spin-orbit coupling
      INIWAV =      1    electr: 0-lowe 1-rand  2-diag
      LASPH  =      F    aspherical Exc in radial PAW
      METAGGA=      F    non-selfconsistent MetaGGA calc.

  Electronic Relaxation 1
      ENCUT  =  500.0 eV  36.75 Ry    6.06 a.u.   6.52  6.52  7.29*2*pi/ulx,y,z
      ENINI  =  500.0     initial cutoff
      ENAUG  =  980.2 eV  augmentation charge cutoff
      NELM   =     60;   NELMIN=  2; NELMDL= -5     # of ELM steps 
      EDIFF  = 0.1E-04   stopping-criterion for ELM
      LREAL  =      T    real-space projection
      NLSPLINE    = F    spline interpolate recip. space projectors
      LCOMPAT=      F    compatible to vasp.4.4
      GGA_COMPAT  = T    GGA compatible to vasp.4.4-vasp.4.6
      LMAXPAW     = -100 max onsite density
      LMAXMIX     =    2 max onsite mixed and CHGCAR
      VOSKOWN=      0    Vosko Wilk Nusair interpolation
      ROPT   =   -0.00040
  Ionic relaxation
      EDIFFG = -.2E-01   stopping-criterion for IOM
      NSW    =    100    number of steps for IOM
      NBLOCK =      1;   KBLOCK =    100    inner block; outer block 
      IBRION =      2    ionic relax: 0-MD 1-quasi-New 2-CG
      NFREE  =      1    steps in history (QN), initial steepest desc. (CG)
      ISIF   =      3    stress and relaxation
      IWAVPR =     11    prediction:  0-non 1-charg 2-wave 3-comb
      ISYM   =      2    0-nonsym 1-usesym 2-fastsym
      LCORR  =      T    Harris-Foulkes like correction to forces

      POTIM  = 0.5000    time-step for ionic-motion
      TEIN   =    0.0    initial temperature
      TEBEG  =    0.0;   TEEND  =   0.0 temperature during run
      SMASS  =  -3.00    Nose mass-parameter (am)
      estimated Nose-frequenzy (Omega)   =  0.10E-29 period in steps =****** mass=  -0.292E-27a.u.
      SCALEE = 1.0000    scale energy and forces
      NPACO  =    256;   APACO  = 16.0  distance and # of slots for P.C.
      PSTRESS=    0.0 pullay stress

    Mass of Ions in am
      POMASS =  24.30
    Ionic Valenz
      ZVAL   =  10.00
    Atomic Wigner-Seitz radii
      RWIGS  =  -1.00
    virtual crystal weights 
      VCA    =   1.00
      NELECT =      20.0000    total number of electrons
      NUPDOWN=      -1.0000    fix difference up-down

  DOS related values:
      EMIN   =  10.00;   EMAX   =-10.00  energy-range for DOS
      EFERMI =   0.00
      ISMEAR =     0;   SIGMA  =   0.10  broadening in eV -4-tet -1-fermi 0-gaus

  Electronic relaxation 2 (details)
      IALGO  =     38    algorithm
      LDIAG  =      T    sub-space diagonalisation (order eigenvalues)
      LSUBROT=      T    optimize rotation matrix (better conditioning)
      TURBO    =      0    0=normal 1=particle mesh
      IRESTART =      0    0=no restart 2=restart with 2 vectors
      NREBOOT  =      0    no. of reboots
      NMIN     =      0    reboot dimension
      EREF     =   0.00    reference energy to select bands
      IMIX   =      4    mixing-type and parameters
          AMIX     =   0.40;   BMIX     =  1.00
          AMIX_MAG =   1.60;   BMIX_MAG =  1.00
          AMIN     =   0.10
          WC   =   100.;   INIMIX=   1;  MIXPRE=   1

  Intra band minimization:
      WEIMIN = 0.0010     energy-eigenvalue tresh-hold
      EBREAK =  0.17E-06  absolut break condition
      DEPER  =   0.30     relativ break condition  

      TIME   =   0.40     timestep for ELM

    volume/ion in A,a.u.               =      22.13       149.32
    Fermi-wavevector in a.u.,A,eV,Ry     =   1.256318  2.374097 21.474549  1.578335
    Thomas-Fermi vector in A             =   2.390032
  
  Write flags
      LWAVE  =      T    write WAVECAR
      LCHARG =      T    write CHGCAR
      LVTOT  =      F    write LOCPOT, total local potential
      LVHAR  =      F    write LOCPOT, Hartree potential only
      LELF   =      F    write electronic localiz. function (ELF)
      LORBIT =      0    0 simple, 1 ext, 2 COOP (PROOUT)


  Dipole corrections
      LMONO  =      F    monopole corrections only (constant potential shift)
      LDIPOL =      F    correct potential (dipole corrections)
      IDIPOL =      0    1-x, 2-y, 3-z, 4-all directions 
      EPSILON=  1.0000000 bulk dielectric constant

  Exchange correlation treatment:
      GGA     =    --    GGA type
      LEXCH   =     8    internal setting for exchange type
      VOSKOWN=      0    Vosko Wilk Nusair interpolation
      LHFCALC =     F    Hartree Fock is set to
      LHFONE  =     F    Hartree Fock one center treatment
      AEXX    =    0.0000 exact exchange contribution

  Linear response parameters
      LEPSILON=     F    determine dielectric tensor
      LRPA    =     F    only Hartree local field effects (RPA)
      LNABLA  =     F    use nabla operator in PAW spheres
      LVEL    =     F    velocity operator in full k-point grid
      LINTERFAST=   F  fast interpolation
      KINTER  =     0    interpolate to denser k-point grid
      CSHIFT  =0.1000    complex shift for real part using Kramers Kronig
      OMEGAMAX=  -1.0    maximum frequency
      RTIME   =    0.100 relaxation time in fs

  Orbital magnetization related:
      ORBITALMAG=     F  switch on orbital magnetization
      LCHIMAG   =     F  perturbation theory with respect to B field
      DQ        =  0.001000  dq finite difference perturbation B field



--------------------------------------------------------------------------------------------------------


  conjugate gradient relaxation of ions
  charge density and potential will be updated during run
  spin polarized calculation
  Variant of blocked Davidson
  Davidson routine will perform the subspace rotation
  perform sub-space diagonalisation
        after iterative eigenvector-optimisation
  modified Broyden-mixing scheme, WC =      100.0
  initial mixing is a Kerker type mixing with AMIX =  0.4000 and BMIX =      1.0000
  Hartree-type preconditioning will be used
  using additional bands            5
  real space projection scheme for non local part
  calculate Harris-corrections to forces 
      (improved forces if not selfconsistent)
  use gradient corrections 
  use of overlap-Matrix (Vanderbilt PP)
  Gauss-broadening in eV      SIGMA  =   0.10


--------------------------------------------------------------------------------------------------------


    energy-cutoff  :      500.00
    volume of cell :       44.25
            direct lattice vectors                 reciprocal lattice vectors
          3.574471327  0.000000000  0.000000000     0.279761651  0.161520465  0.000000000
        -1.787235663  3.095582974  0.000000000     0.000000000  0.323040929  0.000000000
          0.000000000  0.000000000  3.999461460     0.000000000  0.000000000  0.250033663

    length of vectors
          3.574471327  3.574471327  3.999461460     0.323040929  0.323040929  0.250033663


  
  k-points in units of 2pi/SCALE and weight: Automatic mesh                          
      0.00000000  0.00000000  0.00000000       0.125
      0.13988083  0.08076023  0.00000000       0.375
      0.00000000  0.00000000  0.12501683       0.125
      0.13988083  0.08076023  0.12501683       0.375
  
  k-points in reciprocal lattice and weights: Automatic mesh                          
      0.00000000  0.00000000  0.00000000       0.125
      0.50000000  0.00000000  0.00000000       0.375
      0.00000000  0.00000000  0.50000000       0.125
      0.50000000  0.00000000  0.50000000       0.375
  
  position of ions in fractional coordinates (direct lattice) 
      0.33333334  0.66666669  0.25000000
      0.66666663  0.33333331  0.75000000
  
  position of ions in cartesian coordinates  (Angst):
      0.00000000  2.06372205  0.99986537
      1.78723556  1.03186093  2.99959610
  


--------------------------------------------------------------------------------------------------------


  k-point  1 :  0.00000.00000.0000  plane waves:    1143
  k-point  2 :  0.50000.00000.0000  plane waves:    1118
  k-point  3 :  0.00000.00000.5000  plane waves:    1142
  k-point  4 :  0.50000.00000.5000  plane waves:    1116

  maximum and minimum number of plane-waves per node :      1143     1116

  maximum number of plane-waves:      1143
  maximum index in each direction: 
      IXMAX=    6   IYMAX=    6   IZMAX=    7
      IXMIN=   -7   IYMIN=   -6   IZMIN=   -7

  NGX is ok and might be reduce to  28
  NGY is ok and might be reduce to  26
  NGZ is ok and might be reduce to  30

  serial   3D FFT for wavefunctions
  parallel 3D FFT for charge:
        minimum data exchange during FFTs selected (reduces bandwidth)


  total amount of memory used by VASP on root node    48514. kBytes
========================================================================

      base      :      30000. kBytes
      nonlr-proj:        588. kBytes
      fftplans  :       4528. kBytes
      grid      :      11122. kBytes
      one-center:         32. kBytes
      wavefun   :       2244. kBytes
  
  Broyden mixing: mesh for mixing (old mesh)
      NGX = 13   NGY = 13   NGZ = 15
    (NGX  = 48   NGY  = 48   NGZ  = 54)
    gives a total of   2535 points

  initial charge density was supplied:
  charge density of overlapping atoms calculated
  number of electron      20.0000000 magnetization       2.0000000
  keeping initial charge density in first step


--------------------------------------------------------------------------------------------------------


  Maximum index for non-local projection operator         2232
  Maximum index for augmentation-charges         4580 (set IRDMAX)


--------------------------------------------------------------------------------------------------------


  First call to EWALD:  gamma=   0.501
  Maximum number of real-space cells 3x 3x 2
  Maximum number of reciprocal cells 3x 3x 3

        FEWALD:  cpu time    0.02: real time    0.00


----------------------------------------- Iteration    1(   1)  ---------------------------------------


        POTLOK:  cpu time    0.51: real time    0.34
        SETDIJ:  cpu time    0.03: real time    0.03
          EDDAV:  cpu time    5.65: real time    1.45
              DOS:  cpu time    0.00: real time    0.00
        --------------------------------------------
            LOOP:  cpu time    6.20: real time    1.82

  eigenvalue-minimisations  :   288
  total energy-change (2. order) : 0.1983403E+03  (-0.1479580E+04)
  number of electron      20.0000000 magnetization       2.0000000
  augmentation part       20.0000000 magnetization       2.0000000

  Free energy of the ion-electron system (eV)
    ---------------------------------------------------
    alpha Z        PSCENC =        65.55939525
    Ewald energy   TEWEN  =     -1463.08703118
    -1/2 Hartree   DENC   =     -1246.77408288
    -exchange  EXHF       =         0.00000000
    -V(xc)+E(xc)   XCENC  =       131.48667334
    PAW double counting   =      2379.29824340    -2557.18617214
    entropy T*S    EENTRO =        -0.00972354
    eigenvalues    EBANDS =      -567.61684535
    atomic energy  EATOM  =      3456.66979631
    ---------------------------------------------------
    free energy    TOTEN  =       198.34025321 eV

    energy without entropy =      198.34997675  energy(sigma->0) =      198.34511498


--------------------------------------------------------------------------------------------------------




----------------------------------------- Iteration    1(   2)  ---------------------------------------


          EDDAV:  cpu time    5.66: real time    1.43
              DOS:  cpu time    0.00: real time    0.00
        --------------------------------------------
            LOOP:  cpu time    5.69: real time    1.44

  eigenvalue-minimisations  :   289
  total energy-change (2. order) :-0.1757080E+03  (-0.1733553E+03)
  number of electron      20.0000000 magnetization       2.0000000
  augmentation part       20.0000000 magnetization       2.0000000

  Free energy of the ion-electron system (eV)
    ---------------------------------------------------
    alpha Z        PSCENC =        65.55939525
    Ewald energy   TEWEN  =     -1463.08703118
    -1/2 Hartree   DENC   =     -1246.77408288
    -exchange  EXHF       =         0.00000000
    -V(xc)+E(xc)   XCENC  =       131.48667334
    PAW double counting   =      2379.29824340    -2557.18617214
    entropy T*S    EENTRO =        -0.00964244
    eigenvalues    EBANDS =      -743.32489528
    atomic energy  EATOM  =      3456.66979631
    ---------------------------------------------------
    free energy    TOTEN  =        22.63228438 eV

    energy without entropy =       22.64192683  energy(sigma->0) =       22.63710560


--------------------------------------------------------------------------------------------------------




----------------------------------------- Iteration    1(   3)  ---------------------------------------


          EDDAV:  cpu time    8.08: real time    2.06
              DOS:  cpu time    0.00: real time    0.00
        --------------------------------------------
            LOOP:  cpu time    8.10: real time    2.07

  eigenvalue-minimisations  :   452
  total energy-change (2. order) :-0.2302548E+02  (-0.2295701E+02)
  number of electron      20.0000000 magnetization       2.0000000
  augmentation part       20.0000000 magnetization       2.0000000

  Free energy of the ion-electron system (eV)
    ---------------------------------------------------
    alpha Z        PSCENC =        65.55939525
    Ewald energy   TEWEN  =     -1463.08703118
    -1/2 Hartree   DENC   =     -1246.77408288
    -exchange  EXHF       =         0.00000000
    -V(xc)+E(xc)   XCENC  =       131.48667334
    PAW double counting   =      2379.29824340    -2557.18617214
    entropy T*S    EENTRO =        -0.01791199
    eigenvalues    EBANDS =      -766.34210161
    atomic energy  EATOM  =      3456.66979631
    ---------------------------------------------------
    free energy    TOTEN  =        -0.39319149 eV

    energy without entropy =       -0.37527950  energy(sigma->0) =       -0.38423550


--------------------------------------------------------------------------------------------------------




----------------------------------------- Iteration    1(   4)  ---------------------------------------


          EDDAV:  cpu time    5.22: real time    1.32
              DOS:  cpu time    0.00: real time    0.00
        --------------------------------------------
            LOOP:  cpu time    5.23: real time    1.32

  eigenvalue-minimisations  :   261
  total energy-change (2. order) :-0.1356903E+01  (-0.1355572E+01)
  number of electron      20.0000000 magnetization       2.0000000
  augmentation part       20.0000000 magnetization       2.0000000

  Free energy of the ion-electron system (eV)
    ---------------------------------------------------
    alpha Z        PSCENC =        65.55939525
    Ewald energy   TEWEN  =     -1463.08703118
    -1/2 Hartree   DENC   =     -1246.77408288
    -exchange  EXHF       =         0.00000000
    -V(xc)+E(xc)   XCENC  =       131.48667334
    PAW double counting   =      2379.29824340    -2557.18617214
    entropy T*S    EENTRO =        -0.01928226
    eigenvalues    EBANDS =      -767.69763439
    atomic energy  EATOM  =      3456.66979631
    ---------------------------------------------------
    free energy    TOTEN  =        -1.75009454 eV

    energy without entropy =       -1.73081228  energy(sigma->0) =       -1.74045341


--------------------------------------------------------------------------------------------------------




----------------------------------------- Iteration    1(   5)  ---------------------------------------


          EDDAV:  cpu time    6.71: real time    1.71
              DOS:  cpu time    0.00: real time    0.00
        CHARGE:  cpu time    0.40: real time    0.11
        MIXING:  cpu time    0.01: real time    0.00
        --------------------------------------------
            LOOP:  cpu time    7.14: real time    1.83

  eigenvalue-minimisations  :   360
  total energy-change (2. order) :-0.7485922E-01  (-0.7485840E-01)
  number of electron      20.0000126 magnetization       0.0073663
  augmentation part        7.2606971 magnetization      -0.3240199

  Broyden mixing:
    rms(total) = 0.14249E+01    rms(broyden)= 0.14230E+01
    rms(prec ) = 0.14906E+01
    weight for this iteration     100.00

  Free energy of the ion-electron system (eV)
    ---------------------------------------------------
    alpha Z        PSCENC =        65.55939525
    Ewald energy   TEWEN  =     -1463.08703118
    -1/2 Hartree   DENC   =     -1246.77408288
    -exchange  EXHF       =         0.00000000
    -V(xc)+E(xc)   XCENC  =       131.48667334
    PAW double counting   =      2379.29824340    -2557.18617214
    entropy T*S    EENTRO =        -0.01928280
    eigenvalues    EBANDS =      -767.77249306
    atomic energy  EATOM  =      3456.66979631
    ---------------------------------------------------
    free energy    TOTEN  =        -1.82495376 eV

    energy without entropy =       -1.80567096  energy(sigma->0) =       -1.81531236


--------------------------------------------------------------------------------------------------------




----------------------------------------- Iteration    1(   6)  ---------------------------------------


        POTLOK:  cpu time    0.43: real time    0.43
        SETDIJ:  cpu time    0.04: real time    0.04
          EDDAV:  cpu time    5.54: real time    1.42
              DOS:  cpu time    0.00: real time    0.00
        CHARGE:  cpu time    0.38: real time    0.12
        MIXING:  cpu time    0.01: real time    0.01
        --------------------------------------------
            LOOP:  cpu time    6.39: real time    2.02

  eigenvalue-minimisations  :   282
  total energy-change (2. order) :-0.5426285E+00  (-0.3943218E-01)
  number of electron      20.0000126 magnetization       0.2079268
  augmentation part        7.2559183 magnetization      -0.1297285

  Broyden mixing:
    rms(total) = 0.63619E+00    rms(broyden)= 0.63605E+00
    rms(prec ) = 0.69072E+00
    weight for this iteration     100.00

  eigenvalues of (default mixing * dielectric matrix)
    average eigenvalue GAMMA=   0.7002
    0.7002

  Free energy of the ion-electron system (eV)
    ---------------------------------------------------
    alpha Z        PSCENC =        65.55939525
    Ewald energy   TEWEN  =     -1463.08703118
    -1/2 Hartree   DENC   =     -1235.69358092
    -exchange  EXHF       =         0.00000000
    -V(xc)+E(xc)   XCENC  =       130.83986867
    PAW double counting   =      2316.94644934    -2502.56157203
    entropy T*S    EENTRO =        -0.01928286
    eigenvalues    EBANDS =      -771.02162488
    atomic energy  EATOM  =      3456.66979631
    ---------------------------------------------------
    free energy    TOTEN  =        -2.36758230 eV

    energy without entropy =       -2.34829944  energy(sigma->0) =       -2.35794087


--------------------------------------------------------------------------------------------------------




----------------------------------------- Iteration    1(   7)  ---------------------------------------


        POTLOK:  cpu time    0.30: real time    0.30
        SETDIJ:  cpu time    0.02: real time    0.02
          EDDAV:  cpu time    5.30: real time    1.35
              DOS:  cpu time    0.00: real time    0.00
        CHARGE:  cpu time    0.34: real time    0.11
        MIXING:  cpu time    0.01: real time    0.01
        --------------------------------------------
            LOOP:  cpu time    5.97: real time    1.80

  eigenvalue-minimisations  :   268
  total energy-change (2. order) :-0.1555827E+00  (-0.1098359E-01)
  number of electron      20.0000126 magnetization       0.3219745
  augmentation part        7.2516704 magnetization       0.0177752

  Broyden mixing:
    rms(total) = 0.16928E+00    rms(broyden)= 0.16924E+00
    rms(prec ) = 0.25658E+00
    weight for this iteration     100.00

  eigenvalues of (default mixing * dielectric matrix)
    average eigenvalue GAMMA=   1.0244
    1.3611  0.6877

  Free energy of the ion-electron system (eV)
    ---------------------------------------------------
    alpha Z        PSCENC =        65.55939525
    Ewald energy   TEWEN  =     -1463.08703118
    -1/2 Hartree   DENC   =     -1230.87538344
    -exchange  EXHF       =         0.00000000
    -V(xc)+E(xc)   XCENC  =       130.57839101
    PAW double counting   =      2290.64262920    -2479.64987959
    entropy T*S    EENTRO =        -0.01933710
    eigenvalues    EBANDS =      -772.34174546
    atomic energy  EATOM  =      3456.66979631
    ---------------------------------------------------
    free energy    TOTEN  =        -2.52316500 eV

    energy without entropy =       -2.50382790  energy(sigma->0) =       -2.51349645


--------------------------------------------------------------------------------------------------------




----------------------------------------- Iteration    1(   8)  ---------------------------------------


        POTLOK:  cpu time    0.42: real time    0.43
        SETDIJ:  cpu time    0.04: real time    0.04
          EDDAV:  cpu time    5.11: real time    1.31
              DOS:  cpu time    0.00: real time    0.00
        CHARGE:  cpu time    0.46: real time    0.11
        MIXING:  cpu time    0.02: real time    0.01
        --------------------------------------------
            LOOP:  cpu time    6.05: real time    1.90

  eigenvalue-minimisations  :   254
  total energy-change (2. order) : 0.6251010E-02  (-0.2369620E-02)
  number of electron      20.0000126 magnetization       0.2612009
  augmentation part        7.2455452 magnetization      -0.0478655

  Broyden mixing:
    rms(total) = 0.51910E-01    rms(broyden)= 0.51899E-01
    rms(prec ) = 0.63423E-01
    weight for this iteration     100.00

  eigenvalues of (default mixing * dielectric matrix)
    average eigenvalue GAMMA=   1.2212
    2.2340  0.7640  0.6656

  Free energy of the ion-electron system (eV)
    ---------------------------------------------------
    alpha Z        PSCENC =        65.55939525
    Ewald energy   TEWEN  =     -1463.08703118
    -1/2 Hartree   DENC   =     -1220.96498669
    -exchange  EXHF       =         0.00000000
    -V(xc)+E(xc)   XCENC  =       130.22684820
    PAW double counting   =      2238.51209199    -2434.40190428
    entropy T*S    EENTRO =        -0.01930073
    eigenvalues    EBANDS =      -775.01182284
    atomic energy  EATOM  =      3456.66979631
    ---------------------------------------------------
    free energy    TOTEN  =        -2.51691398 eV

    energy without entropy =       -2.49761325  energy(sigma->0) =       -2.50726362


--------------------------------------------------------------------------------------------------------




----------------------------------------- Iteration    1(   9)  ---------------------------------------


        POTLOK:  cpu time    0.50: real time    0.33
        SETDIJ:  cpu time    0.04: real time    0.04
          EDDAV:  cpu time    5.48: real time    1.41
              DOS:  cpu time    0.00: real time    0.00
        CHARGE:  cpu time    0.34: real time    0.11
        MIXING:  cpu time    0.00: real time    0.01
        --------------------------------------------
            LOOP:  cpu time    6.38: real time    1.91

  eigenvalue-minimisations  :   280
  total energy-change (2. order) :-0.6194412E-02  (-0.3860929E-03)
  number of electron      20.0000126 magnetization       0.2479681
  augmentation part        7.2409636 magnetization      -0.0629770

  Broyden mixing:
    rms(total) = 0.99968E-02    rms(broyden)= 0.99482E-02
    rms(prec ) = 0.15119E-01
    weight for this iteration     100.00

  eigenvalues of (default mixing * dielectric matrix)
    average eigenvalue GAMMA=   1.1632
    2.3865  0.8841  0.6953  0.6871

  Free energy of the ion-electron system (eV)
    ---------------------------------------------------
    alpha Z        PSCENC =        65.55939525
    Ewald energy   TEWEN  =     -1463.08703118
    -1/2 Hartree   DENC   =     -1219.17205992
    -exchange  EXHF       =         0.00000000
    -V(xc)+E(xc)   XCENC  =       130.16629286
    PAW double counting   =      2230.60898307    -2427.64639710
    entropy T*S    EENTRO =        -0.01928573
    eigenvalues    EBANDS =      -775.60280195
    atomic energy  EATOM  =      3456.66979631
    ---------------------------------------------------
    free energy    TOTEN  =        -2.52310840 eV

    energy without entropy =       -2.50382267  energy(sigma->0) =       -2.51346553


--------------------------------------------------------------------------------------------------------




----------------------------------------- Iteration    1(  10)  ---------------------------------------


        POTLOK:  cpu time    0.43: real time    0.43
        SETDIJ:  cpu time    0.04: real time    0.04
          EDDAV:  cpu time    5.86: real time    1.50
              DOS:  cpu time    0.00: real time    0.00
        CHARGE:  cpu time    0.46: real time    0.11
        MIXING:  cpu time    0.02: real time    0.01
        --------------------------------------------
            LOOP:  cpu time    6.80: real time    2.09

  eigenvalue-minimisations  :   303
  total energy-change (2. order) :-0.2917463E-03  (-0.5792548E-04)
  number of electron      20.0000125 magnetization       0.2490676
  augmentation part        7.2384748 magnetization      -0.0613523

  Broyden mixing:
    rms(total) = 0.62748E-02    rms(broyden)= 0.62527E-02
    rms(prec ) = 0.97427E-02
    weight for this iteration     100.00

  eigenvalues of (default mixing * dielectric matrix)
    average eigenvalue GAMMA=   1.1907
    2.2777  1.4704  0.8479  0.7030  0.6544

  Free energy of the ion-electron system (eV)
    ---------------------------------------------------
    alpha Z        PSCENC =        65.55939525
    Ewald energy   TEWEN  =     -1463.08703118
    -1/2 Hartree   DENC   =     -1219.06645941
    -exchange  EXHF       =         0.00000000
    -V(xc)+E(xc)   XCENC  =       130.16488959
    PAW double counting   =      2231.29719055    -2428.33030630
    entropy T*S    EENTRO =        -0.01929302
    eigenvalues    EBANDS =      -775.71158193
    atomic energy  EATOM  =      3456.66979631
    ---------------------------------------------------
    free energy    TOTEN  =        -2.52340014 eV

    energy without entropy =       -2.50410712  energy(sigma->0) =       -2.51375363


--------------------------------------------------------------------------------------------------------




----------------------------------------- Iteration    1(  11)  ---------------------------------------


        POTLOK:  cpu time    0.52: real time    0.33
        SETDIJ:  cpu time    0.04: real time    0.04
          EDDAV:  cpu time    4.86: real time    1.24
              DOS:  cpu time    0.00: real time    0.00
        CHARGE:  cpu time    0.28: real time    0.11
        MIXING:  cpu time    0.01: real time    0.01
        --------------------------------------------
            LOOP:  cpu time    5.72: real time    1.74

  eigenvalue-minimisations  :   236
  total energy-change (2. order) :-0.8048580E-05  (-0.2231586E-04)
  number of electron      20.0000125 magnetization       0.2501660
  augmentation part        7.2374501 magnetization      -0.0624532

  Broyden mixing:
    rms(total) = 0.34532E-02    rms(broyden)= 0.34368E-02
    rms(prec ) = 0.41106E-02
    weight for this iteration     100.00

  eigenvalues of (default mixing * dielectric matrix)
    average eigenvalue GAMMA=   1.3198
    2.4564  2.4564  0.9064  0.7609  0.7121  0.6267

  Free energy of the ion-electron system (eV)
    ---------------------------------------------------
    alpha Z        PSCENC =        65.55939525
    Ewald energy   TEWEN  =     -1463.08703118
    -1/2 Hartree   DENC   =     -1219.18257244
    -exchange  EXHF       =         0.00000000
    -V(xc)+E(xc)   XCENC  =       130.17561643
    PAW double counting   =      2234.46809967    -2431.27082576
    entropy T*S    EENTRO =        -0.01929520
    eigenvalues    EBANDS =      -775.83659126
    atomic energy  EATOM  =      3456.66979631
    ---------------------------------------------------
    free energy    TOTEN  =        -2.52340819 eV

    energy without entropy =       -2.50411299  energy(sigma->0) =       -2.51376059


--------------------------------------------------------------------------------------------------------




----------------------------------------- Iteration    1(  12)  ---------------------------------------


        POTLOK:  cpu time    0.42: real time    0.43
        SETDIJ:  cpu time    0.04: real time    0.04
          EDDAV:  cpu time    4.03: real time    1.04
              DOS:  cpu time    0.00: real time    0.00
        CHARGE:  cpu time    0.19: real time    0.11
        MIXING:  cpu time    0.01: real time    0.01
        --------------------------------------------
            LOOP:  cpu time    4.70: real time    1.63

  eigenvalue-minimisations  :   183
  total energy-change (2. order) :-0.3328708E-04  (-0.4846266E-05)
  number of electron      20.0000125 magnetization       0.2499836
  augmentation part        7.2372857 magnetization      -0.0617550

  Broyden mixing:
    rms(total) = 0.80166E-03    rms(broyden)= 0.79739E-03
    rms(prec ) = 0.96339E-03
    weight for this iteration     100.00

  eigenvalues of (default mixing * dielectric matrix)
    average eigenvalue GAMMA=   1.3217
    2.5396  2.5396  1.2420  0.8556  0.7184  0.7184  0.6384

  Free energy of the ion-electron system (eV)
    ---------------------------------------------------
    alpha Z        PSCENC =        65.55939525
    Ewald energy   TEWEN  =     -1463.08703118
    -1/2 Hartree   DENC   =     -1219.08059378
    -exchange  EXHF       =         0.00000000
    -V(xc)+E(xc)   XCENC  =       130.17234914
    PAW double counting   =      2234.04176732    -2430.90795058
    entropy T*S    EENTRO =        -0.01929300
    eigenvalues    EBANDS =      -775.87188097
    atomic energy  EATOM  =      3456.66979631
    ---------------------------------------------------
    free energy    TOTEN  =        -2.52344148 eV

    energy without entropy =       -2.50414848  energy(sigma->0) =       -2.51379498


--------------------------------------------------------------------------------------------------------




----------------------------------------- Iteration    1(  13)  ---------------------------------------


        POTLOK:  cpu time    0.42: real time    0.43
        SETDIJ:  cpu time    0.04: real time    0.04
          EDDAV:  cpu time    3.78: real time    0.98
              DOS:  cpu time    0.00: real time    0.00
        --------------------------------------------
            LOOP:  cpu time    4.24: real time    1.45

  eigenvalue-minimisations  :   169
  total energy-change (2. order) : 0.2916378E-05  (-0.1031147E-05)
  number of electron      20.0000125 magnetization       0.2499836
  augmentation part        7.2372857 magnetization      -0.0617550

  Free energy of the ion-electron system (eV)
    ---------------------------------------------------
    alpha Z        PSCENC =        65.55939525
    Ewald energy   TEWEN  =     -1463.08703118
    -1/2 Hartree   DENC   =     -1219.04603416
    -exchange  EXHF       =         0.00000000
    -V(xc)+E(xc)   XCENC  =       130.17103456
    PAW double counting   =      2233.82288008    -2430.71319748
    entropy T*S    EENTRO =        -0.01929283
    eigenvalues    EBANDS =      -775.88098911
    atomic energy  EATOM  =      3456.66979631
    ---------------------------------------------------
    free energy    TOTEN  =        -2.52343856 eV

    energy without entropy =       -2.50414573  energy(sigma->0) =       -2.51379215


--------------------------------------------------------------------------------------------------------




  average (electrostatic) potential at core
    the test charge radii are     0.7298
    (the norm of the test charge is              1.0000)
              1 -47.3880       2 -47.3880
  
  
  
  E-fermi :   1.8768     XC(G=0):  -8.8300     alpha+bet : -7.4127


  spin component 1

  k-point   1 :       0.0000    0.0000    0.0000
    band No.  band energies     occupation 
            1     -73.3797      1.00000
            2     -73.3635      1.00000
            3     -40.1744      1.00000
            4     -40.1558      1.00000
            5     -40.1557      1.00000
            6     -40.1271      1.00000
            7     -40.1271      1.00000
            8     -40.1070      1.00000
            9      -4.5716      1.00000
          10       3.8547      0.00000
          11       4.9753      0.00000
          12       9.3389      0.00000
          13       9.3390      0.00000
          14       9.9247      0.00000
          15       9.9247      0.00000

  k-point   2 :       0.5000    0.0000    0.0000
    band No.  band energies     occupation 
            1     -73.3684      1.00000
            2     -73.3665      1.00000
            3     -40.1621      1.00000
            4     -40.1572      1.00000
            5     -40.1513      1.00000
            6     -40.1372      1.00000
            7     -40.1285      1.00000
            8     -40.1228      1.00000
            9      -0.8624      1.00000
          10      -0.5680      1.00000
          11       6.2258      0.00000
          12       6.6122      0.00000
          13       7.0388      0.00000
          14       7.5181      0.00000
          15       9.0957      0.00000

  k-point   3 :       0.0000    0.0000    0.5000
    band No.  band energies     occupation 
            1     -73.3703      1.00000
            2     -73.3703      1.00000
            3     -40.1416      1.00000
            4     -40.1416      1.00000
            5     -40.1410      1.00000
            6     -40.1410      1.00000
            7     -40.1409      1.00000
            8     -40.1409      1.00000
            9      -2.2405      1.00000
          10      -2.2405      1.00000
          11      11.0774      0.00000
          12      11.0774      0.00000
          13      11.0775      0.00000
          14      11.0775      0.00000
          15      12.3174      0.00000

  k-point   4 :       0.5000    0.0000    0.5000
    band No.  band energies     occupation 
            1     -73.3678      1.00000
            2     -73.3678      1.00000
            3     -40.1732      1.00000
            4     -40.1732      1.00000
            5     -40.1425      1.00000
            6     -40.1425      1.00000
            7     -40.1150      1.00000
            8     -40.1150      1.00000
            9       1.1769      1.00000
          10       1.1769      1.00000
          11       1.9072      0.33328
          12       1.9072      0.33328
          13       8.2139      0.00000
          14       8.2139      0.00000
          15       9.7509      0.00000

  spin component 2

  k-point   1 :       0.0000    0.0000    0.0000
    band No.  band energies     occupation 
            1     -73.3668      1.00000
            2     -73.3507      1.00000
            3     -40.1626      1.00000
            4     -40.1410      1.00000
            5     -40.1409      1.00000
            6     -40.1124      1.00000
            7     -40.1124      1.00000
            8     -40.0956      1.00000
            9      -4.3885      1.00000
          10       4.0519      0.00000
          11       5.0984      0.00000
          12       9.4548      0.00000
          13       9.4548      0.00000
          14      10.1785      0.00000
          15      10.1786      0.00000

  k-point   2 :       0.5000    0.0000    0.0000
    band No.  band energies     occupation 
            1     -73.3556      1.00000
            2     -73.3538      1.00000
            3     -40.1472      1.00000
            4     -40.1423      1.00000
            5     -40.1396      1.00000
            6     -40.1224      1.00000
            7     -40.1170      1.00000
            8     -40.1082      1.00000
            9      -0.7570      1.00000
          10      -0.3167      1.00000
          11       6.4082      0.00000
          12       6.7515      0.00000
          13       7.1787      0.00000
          14       7.7624      0.00000
          15       9.3536      0.00000

  k-point   3 :       0.0000    0.0000    0.5000
    band No.  band energies     occupation 
            1     -73.3574      1.00000
            2     -73.3574      1.00000
            3     -40.1300      1.00000
            4     -40.1300      1.00000
            5     -40.1262      1.00000
            6     -40.1262      1.00000
            7     -40.1262      1.00000
            8     -40.1262      1.00000
            9      -2.0586      1.00000
          10      -2.0586      1.00000
          11      11.2011      0.00000
          12      11.2011      0.00000
          13      11.2011      0.00000
          14      11.2011      0.00000
          15      12.5688      0.00000

  k-point   4 :       0.5000    0.0000    0.5000
    band No.  band energies     occupation 
            1     -73.3550      1.00000
            2     -73.3550      1.00000
            3     -40.1597      1.00000
            4     -40.1597      1.00000
            5     -40.1278      1.00000
            6     -40.1278      1.00000
            7     -40.1021      1.00000
            8     -40.1021      1.00000
            9       1.2977      1.00000
          10       1.2977      1.00000
          11       2.1514      0.00005
          12       2.1514      0.00005
          13       8.3946      0.00000
          14       8.3946      0.00000
          15       9.9550      0.00000


--------------------------------------------------------------------------------------------------------


  soft charge-density along one line, spin component           1
                  0         1         2         3         4         5         6         7         8         9
  total charge-density along one line
  
  soft charge-density along one line, spin component           2
                  0         1         2         3         4         5         6         7         8         9
  total charge-density along one line
  
  pseudopotential strength for first ion, spin component:           1
-79.773  21.264   0.000   0.000   0.000   0.000   0.000   0.000
  21.264 -24.534   0.000   0.000   0.000   0.000   0.000   0.000
    0.000   0.000 -54.162   0.000   0.000  10.183   0.000   0.000
    0.000   0.000   0.000 -54.157   0.000   0.000  10.180   0.000
    0.000   0.000   0.000   0.000 -54.162   0.000   0.000  10.183
    0.000   0.000  10.183   0.000   0.000   6.932   0.000   0.000
    0.000   0.000   0.000  10.180   0.000   0.000   6.933   0.000
    0.000   0.000   0.000   0.000  10.183   0.000   0.000   6.932
    0.000   0.000   0.000   0.000   0.000   0.000   0.000   0.000
    0.000   0.000   0.000   0.000   0.000   0.000   0.000   0.000
    0.000   0.000   0.000   0.000   0.000   0.000   0.000   0.000
    0.000   0.000   0.000   0.000   0.000   0.000   0.000   0.000
    0.000   0.000   0.000   0.000   0.000   0.000   0.000   0.000
  pseudopotential strength for first ion, spin component:           2
-79.788  21.289   0.000   0.000   0.000   0.000   0.000   0.000
  21.289 -24.554   0.000   0.000   0.000   0.000   0.000   0.000
    0.000   0.000 -54.147   0.000   0.000  10.182   0.000   0.000
    0.000   0.000   0.000 -54.145   0.000   0.000  10.180   0.000
    0.000   0.000   0.000   0.000 -54.147   0.000   0.000  10.182
    0.000   0.000  10.182   0.000   0.000   6.940   0.000   0.000
    0.000   0.000   0.000  10.180   0.000   0.000   6.940   0.000
    0.000   0.000   0.000   0.000  10.182   0.000   0.000   6.940
    0.000   0.000   0.000   0.000   0.000   0.000   0.000   0.000
    0.000   0.000   0.000   0.000   0.000   0.000   0.000   0.000
    0.000   0.000   0.000   0.000   0.000   0.000   0.000   0.000
    0.000   0.000   0.000   0.000   0.000   0.000   0.000   0.000
    0.000   0.000   0.000   0.000   0.000   0.000   0.000   0.000
  total augmentation occupancy for first ion, spin component:           1
    2.000   0.001   0.000   0.000   0.000   0.000   0.000   0.000   0.000   0.000   0.000   0.000   0.000
    0.001   1.082   0.000   0.000   0.000   0.000   0.000   0.000   0.000   0.000   0.016   0.000   0.000
    0.000   0.000   2.002   0.000   0.000  -0.001   0.000   0.000   0.000   0.000   0.000   0.000   0.001
    0.000   0.000   0.000   2.002   0.000   0.000  -0.001   0.000   0.000   0.000   0.000   0.000   0.000
    0.000   0.000   0.000   0.000   2.002   0.000   0.000  -0.001   0.001   0.000   0.000   0.000   0.000
    0.000   0.000  -0.001   0.000   0.000   0.036   0.000   0.000   0.000   0.000   0.000   0.000  -0.004
    0.000   0.000   0.000  -0.001   0.000   0.000   0.041   0.000   0.000   0.000   0.000   0.000   0.000
    0.000   0.000   0.000   0.000  -0.001   0.000   0.000   0.036  -0.004   0.000   0.000   0.000   0.000
    0.000   0.000   0.000   0.000   0.001   0.000   0.000  -0.004   0.002   0.000   0.000   0.000   0.000
    0.000   0.000   0.000   0.000   0.000   0.000   0.000   0.000   0.000   0.001   0.000   0.000   0.000
    0.000   0.016   0.000   0.000   0.000   0.000   0.000   0.000   0.000   0.000   0.001   0.000   0.000
    0.000   0.000   0.000   0.000   0.000   0.000   0.000   0.000   0.000   0.000   0.000   0.001   0.000
    0.000   0.000   0.001   0.000   0.000  -0.004   0.000   0.000   0.000   0.000   0.000   0.000   0.002
  total augmentation occupancy for first ion, spin component:           2
    0.000   0.000   0.000   0.000   0.000   0.000   0.000   0.000   0.000   0.000   0.000   0.000   0.000
    0.000   0.097   0.000   0.000   0.000   0.000   0.000   0.000   0.000   0.000  -0.001   0.000   0.000
    0.000   0.000   0.000   0.000   0.000   0.000   0.000   0.000   0.000   0.000   0.000   0.000   0.000
    0.000   0.000   0.000   0.000   0.000   0.000   0.000   0.000   0.000   0.000   0.000   0.000   0.000
    0.000   0.000   0.000   0.000   0.000   0.000   0.000   0.000   0.000   0.000   0.000   0.000   0.000
    0.000   0.000   0.000   0.000   0.000   0.001   0.000   0.000   0.000   0.000   0.000   0.000   0.001
    0.000   0.000   0.000   0.000   0.000   0.000   0.000   0.000   0.000   0.000   0.000   0.000   0.000
    0.000   0.000   0.000   0.000   0.000   0.000   0.000   0.001   0.001   0.000   0.000   0.000   0.000
    0.000   0.000   0.000   0.000   0.000   0.000   0.000   0.001   0.000   0.000   0.000   0.000   0.000
    0.000   0.000   0.000   0.000   0.000   0.000   0.000   0.000   0.000   0.001   0.000   0.000   0.000
    0.000  -0.001   0.000   0.000   0.000   0.000   0.000   0.000   0.000   0.000   0.000   0.000   0.000
    0.000   0.000   0.000   0.000   0.000   0.000   0.000   0.000   0.000   0.000   0.000   0.001   0.000
    0.000   0.000   0.000   0.000   0.000   0.001   0.000   0.000   0.000   0.000   0.000   0.000   0.000


------------------------ aborting loop because EDIFF is reached ----------------------------------------


        CHARGE:  cpu time    0.25: real time    0.12
        FORLOC:  cpu time    0.01: real time    0.01
        FORNL :  cpu time    1.79: real time    0.46
        STRESS:  cpu time    4.96: real time    1.30
        FORHAR:  cpu time    0.03: real time    0.03
        MIXING:  cpu time    0.00: real time    0.01

    FORCE on cell =-STRESS in cart. coord.  units (eV):
    Direction    XX          YY          ZZ          XY          YZ          ZX
    --------------------------------------------------------------------------------------
    Alpha Z    65.55940    65.55940    65.55940
    Ewald    -523.43006  -523.43002  -416.22808    -0.00002     0.00000     0.00000
    Hartree   381.39095   381.39097   456.28173    -0.00001     0.00000     0.00000
    E(xc)    -138.39671  -138.39681  -138.33834    -0.00009     0.00000     0.00000
    Local      77.94688    77.94687  -103.54366     0.00006     0.00000     0.00000
    n-local  -337.13329  -340.97756  -339.98830     3.32912     0.00001     0.00000
    augment    40.82574    40.82560    40.95443    -0.00011     0.00001     0.00002
    Kinetic   439.71812   431.13425   435.35027     7.43374    -0.00001     0.00001
    Fock        0.00000     0.00000     0.00000     0.00000     0.00000     0.00000
    -------------------------------------------------------------------------------------
    Total       0.26685     0.26685     0.04745     0.00000     0.00000     0.00000
    in kB       9.66103     9.66103     1.71793     0.00000     0.00000     0.00000
    external pressure =        7.01 kB  Pullay stress =        0.00 kB


  VOLUME and BASIS-vectors are now :
  -----------------------------------------------------------------------------
    energy-cutoff  :      500.00
    volume of cell :       44.25
            direct lattice vectors                 reciprocal lattice vectors
          3.574471327  0.000000000  0.000000000     0.279761651  0.161520465  0.000000000
        -1.787235663  3.095582974  0.000000000     0.000000000  0.323040929  0.000000000
          0.000000000  0.000000000  3.999461460     0.000000000  0.000000000  0.250033663

    length of vectors
          3.574471327  3.574471327  3.999461460     0.323040929  0.323040929  0.250033663


  FORCES acting on ions
        electron-ion (+dipol)            ewald-force                    non-local-force                 convergence-correction
  -----------------------------------------------------------------------------------------------
      0.760E-05 -.166E-03 0.656E-11   -.768E-05 -.934E-05 -.582E-14   -.347E-17 0.555E-16 -.146E-21   -.173E-07 0.153E-06 0.844E-13
      0.281E-03 0.166E-03 -.101E-10   0.768E-05 0.934E-05 0.582E-14   -.243E-16 0.000E+00 0.529E-22   -.930E-07 -.153E-06 0.288E-12
  -----------------------------------------------------------------------------------------------
      0.289E-03 0.168E-10 -.354E-11   -.380E-15 -.129E-14 0.000E+00   -.278E-16 0.555E-16 -.926E-22   -.110E-06 -.287E-11 0.372E-12
  
  
  POSITION                                       TOTAL-FORCE (eV/Angst)
  -----------------------------------------------------------------------------------
            0.00000      2.06372      0.99987         0.000000      0.000000      0.000000
            1.78724      1.03186      2.99960         0.000000      0.000000      0.000000
  -----------------------------------------------------------------------------------
        total drift:                                0.000289      0.000000      0.000000


--------------------------------------------------------------------------------------------------------



    FREE ENERGIE OF THE ION-ELECTRON SYSTEM (eV)
    ---------------------------------------------------
    free  energy   TOTEN  =        -2.523439 eV

    energy  without entropy=       -2.504146  energy(sigma->0) =       -2.513792
  


--------------------------------------------------------------------------------------------------------


        POTLOK:  cpu time    0.47: real time    0.47


--------------------------------------------------------------------------------------------------------




--------------------------------------------------------------------------------------------------------


        WAVPRE:  cpu time    0.02: real time    0.02
        FEWALD:  cpu time    0.00: real time    0.00
        GENKIN:  cpu time    0.00: real time    0.00
        ORTHCH:  cpu time    0.54: real time    0.14
          LOOP+:  cpu time   87.29: real time   26.12


----------------------------------------- Iteration    2(   1)  ---------------------------------------


        POTLOK:  cpu time    0.76: real time    0.33
        SETDIJ:  cpu time    0.04: real time    0.04
          EDDAV:  cpu time    6.62: real time    1.68
              DOS:  cpu time    0.00: real time    0.00
        CHARGE:  cpu time    0.39: real time    0.12
        MIXING:  cpu time    0.01: real time    0.01
        --------------------------------------------
            LOOP:  cpu time    7.81: real time    2.18

  eigenvalue-minimisations  :   352
  total energy-change (2. order) :-0.4708060E-01  (-0.1280294E+00)
  number of electron      20.0000159 magnetization       0.2499276
  augmentation part        7.1777277 magnetization      -0.0602496

  Broyden mixing:
    rms(total) = 0.21481E+00    rms(broyden)= 0.21401E+00
    rms(prec ) = 0.31105E+00
    weight for this iteration     100.00

  Free energy of the ion-electron system (eV)
    ---------------------------------------------------
    alpha Z        PSCENC =        64.64949258
    Ewald energy   TEWEN  =     -1455.91122693
    -1/2 Hartree   DENC   =     -1213.64469305
    -exchange  EXHF       =         0.00000000
    -V(xc)+E(xc)   XCENC  =       129.58739949
    PAW double counting   =      2233.86999887    -2430.75446059
    entropy T*S    EENTRO =        -0.01929241
    eigenvalues    EBANDS =      -787.01753634
    atomic energy  EATOM  =      3456.66979631
    ---------------------------------------------------
    free energy    TOTEN  =        -2.57052208 eV

    energy without entropy =       -2.55122967  energy(sigma->0) =       -2.56087588


--------------------------------------------------------------------------------------------------------




----------------------------------------- Iteration    2(   2)  ---------------------------------------


        POTLOK:  cpu time    0.42: real time    0.43
        SETDIJ:  cpu time    0.04: real time    0.04
          EDDAV:  cpu time    4.87: real time    1.25
              DOS:  cpu time    0.00: real time    0.00
        CHARGE:  cpu time    0.26: real time    0.14
        MIXING:  cpu time    0.01: real time    0.01
        --------------------------------------------
            LOOP:  cpu time    5.61: real time    1.87

  eigenvalue-minimisations  :   240
  total energy-change (2. order) : 0.3920420E-01  (-0.6682005E-02)
  number of electron      20.0000159 magnetization       0.2499052
  augmentation part        7.1680222 magnetization      -0.0620609

  Broyden mixing:
    rms(total) = 0.10744E+00    rms(broyden)= 0.10740E+00
    rms(prec ) = 0.15463E+00
    weight for this iteration     100.00

  eigenvalues of (default mixing * dielectric matrix)
    average eigenvalue GAMMA=   1.9989
    1.9989

  Free energy of the ion-electron system (eV)
    ---------------------------------------------------
    alpha Z        PSCENC =        64.64949258
    Ewald energy   TEWEN  =     -1455.91122693
    -1/2 Hartree   DENC   =     -1219.95904409
    -exchange  EXHF       =         0.00000000
    -V(xc)+E(xc)   XCENC  =       129.92590599
    PAW double counting   =      2241.32955900    -2438.07665106
    entropy T*S    EENTRO =        -0.01929343
    eigenvalues    EBANDS =      -781.13985626
    atomic energy  EATOM  =      3456.66979631
    ---------------------------------------------------
    free energy    TOTEN  =        -2.53131789 eV

    energy without entropy =       -2.51202445  energy(sigma->0) =       -2.52167117


--------------------------------------------------------------------------------------------------------




----------------------------------------- Iteration    2(   3)  ---------------------------------------


        POTLOK:  cpu time    0.30: real time    0.30
        SETDIJ:  cpu time    0.02: real time    0.02
          EDDAV:  cpu time    5.92: real time    1.52
              DOS:  cpu time    0.01: real time    0.00
        CHARGE:  cpu time    0.23: real time    0.11
        MIXING:  cpu time    0.00: real time    0.01
        --------------------------------------------
            LOOP:  cpu time    6.49: real time    1.97

  eigenvalue-minimisations  :   310
  total energy-change (2. order) : 0.7366104E-02  (-0.7882780E-02)
  number of electron      20.0000160 magnetization       0.2499156
  augmentation part        7.2249234 magnetization      -0.0595967

  Broyden mixing:
    rms(total) = 0.38127E-01    rms(broyden)= 0.37139E-01
    rms(prec ) = 0.51467E-01
    weight for this iteration     100.00

  eigenvalues of (default mixing * dielectric matrix)
    average eigenvalue GAMMA=   1.1231
    1.8496  0.3967

  Free energy of the ion-electron system (eV)
    ---------------------------------------------------
    alpha Z        PSCENC =        64.64949258
    Ewald energy   TEWEN  =     -1455.91122693
    -1/2 Hartree   DENC   =     -1226.05309267
    -exchange  EXHF       =         0.00000000
    -V(xc)+E(xc)   XCENC  =       130.23954202
    PAW double counting   =      2247.72763660    -2443.73095450
    entropy T*S    EENTRO =        -0.01929250
    eigenvalues    EBANDS =      -776.09585268
    atomic energy  EATOM  =      3456.66979631
    ---------------------------------------------------
    free energy    TOTEN  =        -2.52395178 eV

    energy without entropy =       -2.50465928  energy(sigma->0) =       -2.51430553


--------------------------------------------------------------------------------------------------------




----------------------------------------- Iteration    2(   4)  ---------------------------------------


        POTLOK:  cpu time    0.43: real time    0.43
        SETDIJ:  cpu time    0.04: real time    0.04
          EDDAV:  cpu time    4.96: real time    1.28
              DOS:  cpu time    0.00: real time    0.00
        CHARGE:  cpu time    0.46: real time    0.11
        MIXING:  cpu time    0.02: real time    0.01
        --------------------------------------------
            LOOP:  cpu time    5.91: real time    1.87

  eigenvalue-minimisations  :   247
  total energy-change (2. order) :-0.7521932E-04  (-0.3236217E-03)
  number of electron      20.0000160 magnetization       0.2499168
  augmentation part        7.2285768 magnetization      -0.0601516

  Broyden mixing:
    rms(total) = 0.26387E-01    rms(broyden)= 0.26312E-01
    rms(prec ) = 0.35985E-01
    weight for this iteration     100.00

  eigenvalues of (default mixing * dielectric matrix)
    average eigenvalue GAMMA=   0.9001
    1.8246  0.4378  0.4378

  Free energy of the ion-electron system (eV)
    ---------------------------------------------------
    alpha Z        PSCENC =        64.64949258
    Ewald energy   TEWEN  =     -1455.91122693
    -1/2 Hartree   DENC   =     -1225.31062691
    -exchange  EXHF       =         0.00000000
    -V(xc)+E(xc)   XCENC  =       130.19858094
    PAW double counting   =      2245.38802057    -2441.48831823
    entropy T*S    EENTRO =        -0.01929237
    eigenvalues    EBANDS =      -776.70045297
    atomic energy  EATOM  =      3456.66979631
    ---------------------------------------------------
    free energy    TOTEN  =        -2.52402700 eV

    energy without entropy =       -2.50473464  energy(sigma->0) =       -2.51438082


--------------------------------------------------------------------------------------------------------




----------------------------------------- Iteration    2(   5)  ---------------------------------------


        POTLOK:  cpu time    0.47: real time    0.33
        SETDIJ:  cpu time    0.04: real time    0.04
          EDDAV:  cpu time    6.09: real time    1.56
              DOS:  cpu time    0.00: real time    0.00
        CHARGE:  cpu time    0.46: real time    0.11
        MIXING:  cpu time    0.01: real time    0.01
        --------------------------------------------
            LOOP:  cpu time    7.08: real time    2.05

  eigenvalue-minimisations  :   319
  total energy-change (2. order) :-0.2442494E-03  (-0.1432936E-04)
  number of electron      20.0000160 magnetization       0.2499142
  augmentation part        7.2290163 magnetization      -0.0603340

  Broyden mixing:
    rms(total) = 0.19299E-01    rms(broyden)= 0.19295E-01
    rms(prec ) = 0.26223E-01
    weight for this iteration     100.00

  eigenvalues of (default mixing * dielectric matrix)
    average eigenvalue GAMMA=   1.4619
    2.2834  1.4890  1.4890  0.5862

  Free energy of the ion-electron system (eV)
    ---------------------------------------------------
    alpha Z        PSCENC =        64.64949258
    Ewald energy   TEWEN  =     -1455.91122693
    -1/2 Hartree   DENC   =     -1224.92702480
    -exchange  EXHF       =         0.00000000
    -V(xc)+E(xc)   XCENC  =       130.18150375
    PAW double counting   =      2242.63962811    -2438.90295285
    entropy T*S    EENTRO =        -0.01929277
    eigenvalues    EBANDS =      -776.90419464
    atomic energy  EATOM  =      3456.66979631
    ---------------------------------------------------
    free energy    TOTEN  =        -2.52427125 eV

    energy without entropy =       -2.50497848  energy(sigma->0) =       -2.51462487


--------------------------------------------------------------------------------------------------------




----------------------------------------- Iteration    2(   6)  ---------------------------------------


        POTLOK:  cpu time    0.42: real time    0.43
        SETDIJ:  cpu time    0.04: real time    0.04
          EDDAV:  cpu time    5.64: real time    1.44
              DOS:  cpu time    0.00: real time    0.00
        CHARGE:  cpu time    0.38: real time    0.11
        MIXING:  cpu time    0.00: real time    0.01
        --------------------------------------------
            LOOP:  cpu time    6.49: real time    2.03

  eigenvalue-minimisations  :   289
  total energy-change (2. order) :-0.4646949E-03  (-0.7037487E-04)
  number of electron      20.0000160 magnetization       0.2499218
  augmentation part        7.2348263 magnetization      -0.0606647

  Broyden mixing:
    rms(total) = 0.24680E-02    rms(broyden)= 0.23860E-02
    rms(prec ) = 0.36261E-02
    weight for this iteration     100.00

  eigenvalues of (default mixing * dielectric matrix)
    average eigenvalue GAMMA=   1.3260
    2.2267  1.5282  1.5282  0.6735  0.6735

  Free energy of the ion-electron system (eV)
    ---------------------------------------------------
    alpha Z        PSCENC =        64.64949258
    Ewald energy   TEWEN  =     -1455.91122693
    -1/2 Hartree   DENC   =     -1223.90760863
    -exchange  EXHF       =         0.00000000
    -V(xc)+E(xc)   XCENC  =       130.14001253
    PAW double counting   =      2234.40638588    -2431.14727053
    entropy T*S    EENTRO =        -0.01929298
    eigenvalues    EBANDS =      -777.40502417
    atomic energy  EATOM  =      3456.66979631
    ---------------------------------------------------
    free energy    TOTEN  =        -2.52473595 eV

    energy without entropy =       -2.50544296  energy(sigma->0) =       -2.51508946


--------------------------------------------------------------------------------------------------------




----------------------------------------- Iteration    2(   7)  ---------------------------------------


        POTLOK:  cpu time    0.30: real time    0.30
        SETDIJ:  cpu time    0.03: real time    0.02
          EDDAV:  cpu time    4.11: real time    1.06
              DOS:  cpu time    0.00: real time    0.00
        --------------------------------------------
            LOOP:  cpu time    4.44: real time    1.39

  eigenvalue-minimisations  :   190
  total energy-change (2. order) :-0.8846290E-05  (-0.1802987E-05)
  number of electron      20.0000160 magnetization       0.2499218
  augmentation part        7.2348263 magnetization      -0.0606647

  Free energy of the ion-electron system (eV)
    ---------------------------------------------------
    alpha Z        PSCENC =        64.64949258
    Ewald energy   TEWEN  =     -1455.91122693
    -1/2 Hartree   DENC   =     -1223.83700085
    -exchange  EXHF       =         0.00000000
    -V(xc)+E(xc)   XCENC  =       130.13641814
    PAW double counting   =      2234.26429189    -2431.01145232
    entropy T*S    EENTRO =        -0.01929275
    eigenvalues    EBANDS =      -777.46577086
    atomic energy  EATOM  =      3456.66979631
    ---------------------------------------------------
    free energy    TOTEN  =        -2.52474479 eV

    energy without entropy =       -2.50545205  energy(sigma->0) =       -2.51509842


--------------------------------------------------------------------------------------------------------




  average (electrostatic) potential at core
    the test charge radii are     0.7298
    (the norm of the test charge is              1.0000)
              1 -47.4775       2 -47.4775
  
  
  
  E-fermi :   1.8086     XC(G=0):  -8.7807     alpha+bet : -7.3099


  spin component 1

  k-point   1 :       0.0000    0.0000    0.0000
    band No.  band energies     occupation 
            1     -73.4659      1.00000
            2     -73.4499      1.00000
            3     -40.2579      1.00000
            4     -40.2425      1.00000
            5     -40.2425      1.00000
            6     -40.2149      1.00000
            7     -40.2149      1.00000
            8     -40.1937      1.00000
            9      -4.5834      1.00000
          10       3.8290      0.00000
          11       4.9472      0.00000
          12       9.1376      0.00000
          13       9.1376      0.00000
          14       9.7566      0.00000
          15       9.7567      0.00000

  k-point   2 :       0.5000    0.0000    0.0000
    band No.  band energies     occupation 
            1     -73.4538      1.00000
            2     -73.4525      1.00000
            3     -40.2484      1.00000
            4     -40.2432      1.00000
            5     -40.2359      1.00000
            6     -40.2240      1.00000
            7     -40.2141      1.00000
            8     -40.2104      1.00000
            9      -0.9303      1.00000
          10      -0.6181      1.00000
          11       6.0735      0.00000
          12       6.5147      0.00000
          13       6.9642      0.00000
          14       7.4633      0.00000
          15       9.0200      0.00000

  k-point   3 :       0.0000    0.0000    0.5000
    band No.  band energies     occupation 
            1     -73.4564      1.00000
            2     -73.4564      1.00000
            3     -40.2282      1.00000
            4     -40.2282      1.00000
            5     -40.2282      1.00000
            6     -40.2282      1.00000
            7     -40.2266      1.00000
            8     -40.2266      1.00000
            9      -2.2573      1.00000
          10      -2.2573      1.00000
          11      10.9002      0.00000
          12      10.9002      0.00000
          13      10.9003      0.00000
          14      10.9003      0.00000
          15      12.1206      0.00000

  k-point   4 :       0.5000    0.0000    0.5000
    band No.  band energies     occupation 
            1     -73.4535      1.00000
            2     -73.4535      1.00000
            3     -40.2579      1.00000
            4     -40.2579      1.00000
            5     -40.2295      1.00000
            6     -40.2295      1.00000
            7     -40.2018      1.00000
            8     -40.2018      1.00000
            9       1.1195      1.00000
          10       1.1195      1.00000
          11       1.8390      0.33328
          12       1.8390      0.33328
          13       8.0640      0.00000
          14       8.0640      0.00000
          15       9.5982      0.00000

  spin component 2

  k-point   1 :       0.0000    0.0000    0.0000
    band No.  band energies     occupation 
            1     -73.4532      1.00000
            2     -73.4374      1.00000
            3     -40.2462      1.00000
            4     -40.2279      1.00000
            5     -40.2279      1.00000
            6     -40.2004      1.00000
            7     -40.2004      1.00000
            8     -40.1825      1.00000
            9      -4.4010      1.00000
          10       4.0244      0.00000
          11       5.0711      0.00000
          12       9.2533      0.00000
          13       9.2533      0.00000
          14      10.0098      0.00000
          15      10.0099      0.00000

  k-point   2 :       0.5000    0.0000    0.0000
    band No.  band energies     occupation 
            1     -73.4413      1.00000
            2     -73.4400      1.00000
            3     -40.2337      1.00000
            4     -40.2285      1.00000
            5     -40.2245      1.00000
            6     -40.2094      1.00000
            7     -40.2028      1.00000
            8     -40.1959      1.00000
            9      -0.8249      1.00000
          10      -0.3678      1.00000
          11       6.2550      0.00000
          12       6.6574      0.00000
          13       7.1027      0.00000
          14       7.7052      0.00000
          15       9.2777      0.00000

  k-point   3 :       0.0000    0.0000    0.5000
    band No.  band energies     occupation 
            1     -73.4439      1.00000
            2     -73.4439      1.00000
            3     -40.2152      1.00000
            4     -40.2152      1.00000
            5     -40.2136      1.00000
            6     -40.2136      1.00000
            7     -40.2136      1.00000
            8     -40.2136      1.00000
            9      -2.0759      1.00000
          10      -2.0759      1.00000
          11      11.0222      0.00000
          12      11.0222      0.00000
          13      11.0222      0.00000
          14      11.0222      0.00000
          15      12.3724      0.00000

  k-point   4 :       0.5000    0.0000    0.5000
    band No.  band energies     occupation 
            1     -73.4410      1.00000
            2     -73.4410      1.00000
            3     -40.2446      1.00000
            4     -40.2446      1.00000
            5     -40.2150      1.00000
            6     -40.2150      1.00000
            7     -40.1891      1.00000
            8     -40.1891      1.00000
            9       1.2387      1.00000
          10       1.2387      1.00000
          11       2.0834      0.00005
          12       2.0834      0.00005
          13       8.2438      0.00000
          14       8.2438      0.00000
          15       9.8038      0.00000


--------------------------------------------------------------------------------------------------------


  soft charge-density along one line, spin component           1
                  0         1         2         3         4         5         6         7         8         9
  total charge-density along one line
  
  soft charge-density along one line, spin component           2
                  0         1         2         3         4         5         6         7         8         9
  total charge-density along one line
  
  pseudopotential strength for first ion, spin component:           1
-79.787  21.233   0.000   0.000   0.000   0.000   0.000   0.000
  21.233 -24.510   0.000   0.000   0.000   0.000   0.000   0.000
    0.000   0.000 -54.221   0.000   0.000  10.218   0.000   0.000
    0.000   0.000   0.000 -54.216   0.000   0.000  10.215   0.000
    0.000   0.000   0.000   0.000 -54.221   0.000   0.000  10.218
    0.000   0.000  10.218   0.000   0.000   6.915   0.000   0.000
    0.000   0.000   0.000  10.215   0.000   0.000   6.916   0.000
    0.000   0.000   0.000   0.000  10.218   0.000   0.000   6.915
    0.000   0.000   0.000   0.000   0.000   0.000   0.000   0.000
    0.000   0.000   0.000   0.000   0.000   0.000   0.000   0.000
    0.000   0.000   0.000   0.000   0.000   0.000   0.000   0.000
    0.000   0.000   0.000   0.000   0.000   0.000   0.000   0.000
    0.000   0.000   0.000   0.000   0.000   0.000   0.000   0.000
  pseudopotential strength for first ion, spin component:           2
-79.802  21.257   0.000   0.000   0.000   0.000   0.000   0.000
  21.257 -24.529   0.000   0.000   0.000   0.000   0.000   0.000
    0.000   0.000 -54.207   0.000   0.000  10.218   0.000   0.000
    0.000   0.000   0.000 -54.203   0.000   0.000  10.215   0.000
    0.000   0.000   0.000   0.000 -54.207   0.000   0.000  10.218
    0.000   0.000  10.218   0.000   0.000   6.922   0.000   0.000
    0.000   0.000   0.000  10.215   0.000   0.000   6.923   0.000
    0.000   0.000   0.000   0.000  10.218   0.000   0.000   6.922
    0.000   0.000   0.000   0.000   0.000   0.000   0.000   0.000
    0.000   0.000   0.000   0.000   0.000   0.000   0.000   0.000
    0.000   0.000   0.000   0.000   0.000   0.000   0.000   0.000
    0.000   0.000   0.000   0.000   0.000   0.000   0.000   0.000
    0.000   0.000   0.000   0.000   0.000   0.000   0.000   0.000
  total augmentation occupancy for first ion, spin component:           1
    2.000   0.002   0.000   0.000   0.000   0.000   0.000   0.000   0.000   0.000   0.000   0.000   0.000
    0.002   1.085   0.000   0.000   0.000   0.000   0.000   0.000   0.000   0.000   0.015   0.000   0.000
    0.000   0.000   2.002   0.000   0.000  -0.001   0.000   0.000   0.000   0.000   0.000   0.000   0.001
    0.000   0.000   0.000   2.002   0.000   0.000  -0.001   0.000   0.000   0.000   0.000   0.000   0.000
    0.000   0.000   0.000   0.000   2.002   0.000   0.000  -0.001   0.001   0.000   0.000   0.000   0.000
    0.000   0.000  -0.001   0.000   0.000   0.035   0.000   0.000   0.000   0.000   0.000   0.000  -0.004
[...]


--------------------------------------------------------------------------------------------------------



    FREE ENERGIE OF THE ION-ELECTRON SYSTEM (eV)
    ---------------------------------------------------
    free  energy   TOTEN  =        -2.523436 eV

    energy  without entropy=       -2.504143  energy(sigma->0) =       -2.513790
  
  d Force = 0.0000000E+00[ 0.000E+00, 0.000E+00]  d Energy =-0.1405220E-02 0.141E-02
  d Force = 0.0000000E+00[ 0.000E+00, 0.000E+00]  d Ewald  = 0.6084051E+01-0.608E+01


--------------------------------------------------------------------------------------------------------


        POTLOK:  cpu time    0.56: real time    0.44


--------------------------------------------------------------------------------------------------------




--------------------------------------------------------------------------------------------------------


        WAVPRE:  cpu time    0.02: real time    0.02
        FEWALD:  cpu time    0.00: real time    0.00
        GENKIN:  cpu time    0.00: real time    0.00
        ORTHCH:  cpu time    0.54: real time    0.14
          LOOP+:  cpu time   51.08: real time   15.93


----------------------------------------- Iteration   20(   1)  ---------------------------------------


        POTLOK:  cpu time    0.48: real time    0.41
        SETDIJ:  cpu time    0.04: real time    0.04
          EDDAV:  cpu time    3.60: real time    0.93
              DOS:  cpu time    0.00: real time    0.00
        CHARGE:  cpu time    0.28: real time    0.14
        MIXING:  cpu time    0.01: real time    0.01
        --------------------------------------------
            LOOP:  cpu time    4.42: real time    1.53

  eigenvalue-minimisations  :   155
  total energy-change (2. order) :-0.1613976E-05  (-0.4877692E-06)
  number of electron      20.0000125 magnetization       0.2499216
  augmentation part        7.2373556 magnetization      -0.0615532

  Broyden mixing:
    rms(total) = 0.20643E-03    rms(broyden)= 0.20461E-03
    rms(prec ) = 0.22604E-03
    weight for this iteration     100.00

  Free energy of the ion-electron system (eV)
    ---------------------------------------------------
    alpha Z        PSCENC =        65.55939525
    Ewald energy   TEWEN  =     -1463.08703118
    -1/2 Hartree   DENC   =     -1219.06210516
    -exchange  EXHF       =         0.00000000
    -V(xc)+E(xc)   XCENC  =       130.17168337
    PAW double counting   =      2233.91980489    -2430.79592778
    entropy T*S    EENTRO =        -0.01929298
    eigenvalues    EBANDS =      -775.87976423
    atomic energy  EATOM  =      3456.66979631
    ---------------------------------------------------
    free energy    TOTEN  =        -2.52344151 eV

    energy without entropy =       -2.50414854  energy(sigma->0) =       -2.51379502


--------------------------------------------------------------------------------------------------------




----------------------------------------- Iteration   20(   2)  ---------------------------------------


        POTLOK:  cpu time    0.42: real time    0.43
        SETDIJ:  cpu time    0.04: real time    0.04
          EDDAV:  cpu time    3.08: real time    0.79
              DOS:  cpu time    0.00: real time    0.00
        --------------------------------------------
            LOOP:  cpu time    3.54: real time    1.27

  eigenvalue-minimisations  :   120
  total energy-change (2. order) : 0.8411530E-06  (-0.5201784E-07)
  number of electron      20.0000125 magnetization       0.2499216
  augmentation part        7.2373556 magnetization      -0.0615532

  Free energy of the ion-electron system (eV)
    ---------------------------------------------------
    alpha Z        PSCENC =        65.55939525
    Ewald energy   TEWEN  =     -1463.08703118
    -1/2 Hartree   DENC   =     -1219.06096202
    -exchange  EXHF       =         0.00000000
    -V(xc)+E(xc)   XCENC  =       130.17163170
    PAW double counting   =      2233.91115619    -2430.78883725
    entropy T*S    EENTRO =        -0.01929279
    eigenvalues    EBANDS =      -775.87929688
    atomic energy  EATOM  =      3456.66979631
    ---------------------------------------------------
    free energy    TOTEN  =        -2.52344067 eV

    energy without entropy =       -2.50414788  energy(sigma->0) =       -2.51379428


--------------------------------------------------------------------------------------------------------




  average (electrostatic) potential at core
    the test charge radii are     0.7298
    (the norm of the test charge is              1.0000)
              1 -47.3878       2 -47.3878
  
  
  
  E-fermi :   1.8768     XC(G=0):  -8.8299     alpha+bet : -7.4127


  spin component 1

  k-point   1 :       0.0000    0.0000    0.0000
    band No.  band energies     occupation 
            1     -73.3795      1.00000
            2     -73.3633      1.00000
            3     -40.1743      1.00000
            4     -40.1557      1.00000
            5     -40.1557      1.00000
            6     -40.1270      1.00000
            7     -40.1270      1.00000
            8     -40.1069      1.00000
            9      -4.5716      1.00000
          10       3.8547      0.00000
          11       4.9752      0.00000
          12       9.3390      0.00000
          13       9.3390      0.00000
          14       9.9247      0.00000
          15       9.9247      0.00000

  k-point   2 :       0.5000    0.0000    0.0000
    band No.  band energies     occupation 
            1     -73.3682      1.00000
            2     -73.3664      1.00000
            3     -40.1620      1.00000
            4     -40.1571      1.00000
            5     -40.1512      1.00000
            6     -40.1371      1.00000
            7     -40.1284      1.00000
            8     -40.1227      1.00000
            9      -0.8624      1.00000
          10      -0.5680      1.00000
          11       6.2259      0.00000
          12       6.6121      0.00000
          13       7.0389      0.00000
          14       7.5181      0.00000
          15       9.0955      0.00000

  k-point   3 :       0.0000    0.0000    0.5000
    band No.  band energies     occupation 
            1     -73.3701      1.00000
            2     -73.3701      1.00000
            3     -40.1415      1.00000
            4     -40.1415      1.00000
            5     -40.1409      1.00000
            6     -40.1409      1.00000
            7     -40.1409      1.00000
            8     -40.1409      1.00000
            9      -2.2405      1.00000
          10      -2.2405      1.00000
          11      11.0775      0.00000
          12      11.0775      0.00000
          13      11.0775      0.00000
          14      11.0775      0.00000
          15      12.3174      0.00000

  k-point   4 :       0.5000    0.0000    0.5000
    band No.  band energies     occupation 
            1     -73.3676      1.00000
            2     -73.3676      1.00000
            3     -40.1731      1.00000
            4     -40.1731      1.00000
            5     -40.1424      1.00000
            6     -40.1424      1.00000
            7     -40.1149      1.00000
            8     -40.1149      1.00000
            9       1.1769      1.00000
          10       1.1769      1.00000
          11       1.9073      0.33328
          12       1.9073      0.33328
          13       8.2139      0.00000
          14       8.2139      0.00000
          15       9.7509      0.00000

  spin component 2

  k-point   1 :       0.0000    0.0000    0.0000
    band No.  band energies     occupation 
            1     -73.3666      1.00000
            2     -73.3505      1.00000
            3     -40.1625      1.00000
            4     -40.1409      1.00000
            5     -40.1409      1.00000
            6     -40.1124      1.00000
            7     -40.1124      1.00000
            8     -40.0956      1.00000
            9      -4.3884      1.00000
          10       4.0518      0.00000
          11       5.0986      0.00000
          12       9.4548      0.00000
          13       9.4549      0.00000
          14      10.1786      0.00000
          15      10.1786      0.00000

  k-point   2 :       0.5000    0.0000    0.0000
    band No.  band energies     occupation 
            1     -73.3554      1.00000
            2     -73.3536      1.00000
            3     -40.1472      1.00000
            4     -40.1423      1.00000
            5     -40.1396      1.00000
            6     -40.1224      1.00000
            7     -40.1169      1.00000
            8     -40.1082      1.00000
            9      -0.7569      1.00000
          10      -0.3166      1.00000
          11       6.4082      0.00000
          12       6.7516      0.00000
          13       7.1786      0.00000
          14       7.7623      0.00000
          15       9.3538      0.00000

  k-point   3 :       0.0000    0.0000    0.5000
    band No.  band energies     occupation 
            1     -73.3572      1.00000
            2     -73.3572      1.00000
            3     -40.1300      1.00000
            4     -40.1300      1.00000
            5     -40.1262      1.00000
            6     -40.1262      1.00000
            7     -40.1262      1.00000
            8     -40.1262      1.00000
            9      -2.0584      1.00000
          10      -2.0584      1.00000
          11      11.2011      0.00000
          12      11.2011      0.00000
          13      11.2011      0.00000
          14      11.2011      0.00000
          15      12.5689      0.00000

  k-point   4 :       0.5000    0.0000    0.5000
    band No.  band energies     occupation 
            1     -73.3548      1.00000
            2     -73.3548      1.00000
            3     -40.1597      1.00000
            4     -40.1597      1.00000
            5     -40.1278      1.00000
            6     -40.1278      1.00000
            7     -40.1020      1.00000
            8     -40.1020      1.00000
            9       1.2978      1.00000
          10       1.2978      1.00000
          11       2.1515      0.00005
          12       2.1515      0.00005
          13       8.3947      0.00000
          14       8.3947      0.00000
          15       9.9552      0.00000


--------------------------------------------------------------------------------------------------------


  soft charge-density along one line, spin component           1
                  0         1         2         3         4         5         6         7         8         9
  total charge-density along one line
  
  soft charge-density along one line, spin component           2
                  0         1         2         3         4         5         6         7         8         9
  total charge-density along one line
  
  pseudopotential strength for first ion, spin component:           1
-79.774  21.265   0.000   0.000   0.000   0.000   0.000   0.000
  21.265 -24.535   0.000   0.000   0.000   0.000   0.000   0.000
    0.000   0.000 -54.162   0.000   0.000  10.183   0.000   0.000
    0.000   0.000   0.000 -54.157   0.000   0.000  10.180   0.000
    0.000   0.000   0.000   0.000 -54.162   0.000   0.000  10.183
    0.000   0.000  10.183   0.000   0.000   6.932   0.000   0.000
    0.000   0.000   0.000  10.180   0.000   0.000   6.933   0.000
    0.000   0.000   0.000   0.000  10.183   0.000   0.000   6.932
    0.000   0.000   0.000   0.000   0.000   0.000   0.000   0.000
    0.000   0.000   0.000   0.000   0.000   0.000   0.000   0.000
    0.000   0.000   0.000   0.000   0.000   0.000   0.000   0.000
    0.000   0.000   0.000   0.000   0.000   0.000   0.000   0.000
    0.000   0.000   0.000   0.000   0.000   0.000   0.000   0.000
  pseudopotential strength for first ion, spin component:           2
-79.789  21.289   0.000   0.000   0.000   0.000   0.000   0.000
  21.289 -24.554   0.000   0.000   0.000   0.000   0.000   0.000
    0.000   0.000 -54.147   0.000   0.000  10.182   0.000   0.000
    0.000   0.000   0.000 -54.145   0.000   0.000  10.180   0.000
    0.000   0.000   0.000   0.000 -54.147   0.000   0.000  10.182
    0.000   0.000  10.182   0.000   0.000   6.939   0.000   0.000
    0.000   0.000   0.000  10.180   0.000   0.000   6.940   0.000
    0.000   0.000   0.000   0.000  10.182   0.000   0.000   6.939
    0.000   0.000   0.000   0.000   0.000   0.000   0.000   0.000
    0.000   0.000   0.000   0.000   0.000   0.000   0.000   0.000
    0.000   0.000   0.000   0.000   0.000   0.000   0.000   0.000
    0.000   0.000   0.000   0.000   0.000   0.000   0.000   0.000
    0.000   0.000   0.000   0.000   0.000   0.000   0.000   0.000
  total augmentation occupancy for first ion, spin component:           1
    2.000   0.001   0.000   0.000   0.000   0.000   0.000   0.000   0.000   0.000   0.000   0.000   0.000
    0.001   1.081   0.000   0.000   0.000   0.000   0.000   0.000   0.000   0.000   0.016   0.000   0.000
    0.000   0.000   2.002   0.000   0.000  -0.001   0.000   0.000   0.000   0.000   0.000   0.000   0.001
    0.000   0.000   0.000   2.002   0.000   0.000  -0.001   0.000   0.000   0.000   0.000   0.000   0.000
    0.000   0.000   0.000   0.000   2.002   0.000   0.000  -0.001   0.001   0.000   0.000   0.000   0.000
    0.000   0.000  -0.001   0.000   0.000   0.036   0.000   0.000   0.000   0.000   0.000   0.000  -0.004
    0.000   0.000   0.000  -0.001   0.000   0.000   0.041   0.000   0.000   0.000   0.000   0.000   0.000
    0.000   0.000   0.000   0.000  -0.001   0.000   0.000   0.036  -0.004   0.000   0.000   0.000   0.000
    0.000   0.000   0.000   0.000   0.001   0.000   0.000  -0.004   0.002   0.000   0.000   0.000   0.000
    0.000   0.000   0.000   0.000   0.000   0.000   0.000   0.000   0.000   0.001   0.000   0.000   0.000
    0.000   0.016   0.000   0.000   0.000   0.000   0.000   0.000   0.000   0.000   0.001   0.000   0.000
    0.000   0.000   0.000   0.000   0.000   0.000   0.000   0.000   0.000   0.000   0.000   0.001   0.000
    0.000   0.000   0.001   0.000   0.000  -0.004   0.000   0.000   0.000   0.000   0.000   0.000   0.002
  total augmentation occupancy for first ion, spin component:           2
    0.000   0.000   0.000   0.000   0.000   0.000   0.000   0.000   0.000   0.000   0.000   0.000   0.000
    0.000   0.096   0.000   0.000   0.000   0.000   0.000   0.000   0.000   0.000  -0.001   0.000   0.000
    0.000   0.000   0.000   0.000   0.000   0.000   0.000   0.000   0.000   0.000   0.000   0.000   0.000
    0.000   0.000   0.000   0.000   0.000   0.000   0.000   0.000   0.000   0.000   0.000   0.000   0.000
    0.000   0.000   0.000   0.000   0.000   0.000   0.000   0.000   0.000   0.000   0.000   0.000   0.000
    0.000   0.000   0.000   0.000   0.000   0.001   0.000   0.000   0.000   0.000   0.000   0.000   0.001
    0.000   0.000   0.000   0.000   0.000   0.000   0.000   0.000   0.000   0.000   0.000   0.000   0.000
    0.000   0.000   0.000   0.000   0.000   0.000   0.000   0.001   0.001   0.000   0.000   0.000   0.000
    0.000   0.000   0.000   0.000   0.000   0.000   0.000   0.001   0.000   0.000   0.000   0.000   0.000
    0.000   0.000   0.000   0.000   0.000   0.000   0.000   0.000   0.000   0.001   0.000   0.000   0.000
    0.000  -0.001   0.000   0.000   0.000   0.000   0.000   0.000   0.000   0.000   0.000   0.000   0.000
    0.000   0.000   0.000   0.000   0.000   0.000   0.000   0.000   0.000   0.000   0.000   0.001   0.000
    0.000   0.000   0.000   0.000   0.000   0.001   0.000   0.000   0.000   0.000   0.000   0.000   0.000


------------------------ aborting loop because EDIFF is reached ----------------------------------------


        CHARGE:  cpu time    0.22: real time    0.15
        FORLOC:  cpu time    0.01: real time    0.01
        FORNL :  cpu time    1.78: real time    0.46
        STRESS:  cpu time    5.14: real time    1.32
        FORHAR:  cpu time    0.12: real time    0.03
        MIXING:  cpu time    0.02: real time    0.00

    FORCE on cell =-STRESS in cart. coord.  units (eV):
    Direction    XX          YY          ZZ          XY          YZ          ZX
    --------------------------------------------------------------------------------------
    Alpha Z    65.55940    65.55940    65.55940
    Ewald    -523.43006  -523.43002  -416.22808    -0.00002     0.00000     0.00000
    Hartree   381.39050   381.39051   456.28016    -0.00001     0.00000     0.00000
    E(xc)    -138.39746  -138.39755  -138.33901    -0.00008     0.00000     0.00000
    Local      77.94640    77.94639  -103.54257     0.00006     0.00000     0.00000
    n-local  -337.11697  -340.96111  -339.97146     3.32906     0.00000     0.00000
    augment    40.82355    40.82337    40.95245    -0.00016    -0.00003    -0.00001
    Kinetic   439.71296   431.12886   435.34522     7.43384    -0.00001    -0.00001
    Fock        0.00000     0.00000     0.00000     0.00000     0.00000     0.00000
    -------------------------------------------------------------------------------------
    Total       0.27407     0.27407     0.05611     0.00000     0.00000     0.00000
    in kB       9.92256     9.92256     2.03144     0.00000     0.00000     0.00000
    external pressure =        7.29 kB  Pullay stress =        0.00 kB


  VOLUME and BASIS-vectors are now :
  -----------------------------------------------------------------------------
    energy-cutoff  :      500.00
    volume of cell :       44.25
            direct lattice vectors                 reciprocal lattice vectors
          3.574471327  0.000000000  0.000000000     0.279761651  0.161520465  0.000000000
        -1.787235663  3.095582974  0.000000000     0.000000000  0.323040929  0.000000000
          0.000000000  0.000000000  3.999461460     0.000000000  0.000000000  0.250033663

    length of vectors
          3.574471327  3.574471327  3.999461460     0.323040929  0.323040929  0.250033663


  FORCES acting on ions
        electron-ion (+dipol)            ewald-force                    non-local-force                 convergence-correction
  -----------------------------------------------------------------------------------------------
      0.760E-05 -.166E-03 0.655E-11   -.768E-05 -.934E-05 -.582E-14   -.659E-16 0.694E-17 0.212E-21   0.295E-07 -.151E-07 0.454E-12
      0.281E-03 0.166E-03 -.101E-10   0.768E-05 0.934E-05 0.582E-14   0.659E-16 -.694E-17 -.635E-21   -.314E-07 0.151E-07 0.219E-13
  -----------------------------------------------------------------------------------------------
      0.289E-03 0.167E-10 -.353E-11   -.380E-15 -.129E-14 0.000E+00   0.000E+00 0.000E+00 -.424E-21   -.195E-08 0.344E-11 0.476E-12
  
  
  POSITION                                       TOTAL-FORCE (eV/Angst)
  -----------------------------------------------------------------------------------
            0.00000      2.06372      0.99987         0.000000      0.000000      0.000000
            1.78724      1.03186      2.99960         0.000000      0.000000      0.000000
  -----------------------------------------------------------------------------------
        total drift:                                0.000289      0.000000      0.000000


--------------------------------------------------------------------------------------------------------



    FREE ENERGIE OF THE ION-ELECTRON SYSTEM (eV)
    ---------------------------------------------------
    free  energy   TOTEN  =        -2.523441 eV

    energy  without entropy=       -2.504148  energy(sigma->0) =       -2.513794
  
  d Force = 0.0000000E+00[ 0.000E+00, 0.000E+00]  d Energy = 0.4840406E-05-0.484E-05
  d Force = 0.0000000E+00[ 0.000E+00, 0.000E+00]  d Ewald  = 0.0000000E+00 0.000E+00


--------------------------------------------------------------------------------------------------------


        POTLOK:  cpu time    0.40: real time    0.32


--------------------------------------------------------------------------------------------------------


