<?xml version="1.0" encoding="ISO-8859-1"?>
<modeling>
 <generator>
  <i name="program" type="string">vasp </i>
  <i name="version" type="string">5.2.12  </i>
  <i name="subversion" type="string">11Nov11 complex                                                      parallel </i>
  <i name="platform" type="string">LinuxIFC </i>
  <i name="date" type="string">2015 02 23 </i>
  <i name="time" type="string">18:57:52 </i>
 </generator>
 <incar>
  <i type="string" name="SYSTEM"> Untitled</i>
  <i type="string" name="PREC">high</i>
  <i type="int" name="IALGO">    38</i>
  <i type="int" name="ISPIN">     2</i>
  <i type="int" name="NELM">    60</i>
  <i type="int" name="NELMIN">     2</i>
  <i type="int" name="IBRION">    -1</i>
  <i name="EDIFF">      0.00001000</i>
  <i name="EDIFFG">     -0.02000000</i>
  <i type="int" name="NSW">     0</i>
  <i name="ENCUT">    350.00000000</i>
  <i type="string" name="LREAL"> Auto</i>
  <i type="int" name="ISMEAR">     0</i>
  <i name="SIGMA">      0.10000000</i>
  <i type="logical" name="LWAVE"> T  </i>
  <i type="logical" name="LCHARG"> T  </i>
  <i type="int" name="NELM">    60</i>
 </incar>
 <kpoints>
  <generation param="Monkhorst-Pack">
   <v type="int" name="divisions">       1        1        1 </v>
   <v name="usershift">      0.00000000       0.00000000       0.00000000 </v>
   <v name="genvec1">      1.00000000       0.00000000       0.00000000 </v>
   <v name="genvec2">      0.00000000       1.00000000       0.00000000 </v>
   <v name="genvec3">      0.00000000       0.00000000       1.00000000 </v>
   <v name="shift">      0.00000000       0.00000000       0.00000000 </v>
  </generation>
  <varray name="kpointlist" >
   <v>       0.00000000       0.00000000       0.00000000 </v>
  </varray>
  <varray name="weights" >
   <v>       1.00000000 </v>
  </varray>
 </kpoints>
 <parameters>
  <separator name="general" >
   <i type="string" name="SYSTEM">Untitled</i>
   <i type="logical" name="LCOMPAT"> F  </i>
  </separator>
  <separator name="electronic" >
   <i type="string" name="PREC">high</i>
   <i name="ENMAX">    350.00000000</i>
   <i name="ENAUG">    980.15600000</i>
   <i name="EDIFF">      0.00001000</i>
   <i type="int" name="IALGO">    38</i>
   <i type="int" name="IWAVPR">    10</i>
   <i type="int" name="NBANDS">    10</i>
   <i name="NELECT">     10.00000000</i>
   <i type="int" name="TURBO">     0</i>
   <i type="int" name="IRESTART">     0</i>
   <i type="int" name="NREBOOT">     0</i>
   <i type="int" name="NMIN">     0</i>
   <i name="EREF">      0.00000000</i>
   <separator name="electronic smearing" >
    <i type="int" name="ISMEAR">     0</i>
    <i name="SIGMA">      0.10000000</i>
    <i name="KSPACING">      0.50000000</i>
    <i type="logical" name="KGAMMA"> T  </i>
   </separator>
   <separator name="electronic projectors" >
    <i type="logical" name="LREAL"> T  </i>
    <v name="ROPT">     -0.00040000</v>
    <i type="int" name="LMAXPAW">  -100</i>
    <i type="int" name="LMAXMIX">     2</i>
    <i type="logical" name="NLSPLINE"> F  </i>
   </separator>
   <separator name="electronic startup" >
    <i type="int" name="ISTART">     0</i>
    <i type="int" name="ICHARG">     2</i>
    <i type="int" name="INIWAV">     1</i>
   </separator>
   <separator name="electronic spin" >
    <i type="int" name="ISPIN">     2</i>
    <i type="logical" name="LNONCOLLINEAR"> F  </i>
    <v name="MAGMOM">      1.00000000</v>
    <i name="NUPDOWN">     -1.00000000</i>
    <i type="logical" name="LSORBIT"> F  </i>
    <v name="SAXIS">      0.00000000      0.00000000      1.00000000</v>
    <i type="logical" name="LSPIRAL"> F  </i>
    <v name="QSPIRAL">      0.00000000      0.00000000      0.00000000</v>
    <i type="logical" name="LZEROZ"> F  </i>
   </separator>
   <separator name="electronic exchange-correlation" >
    <i type="logical" name="LASPH"> F  </i>
    <i type="logical" name="LMETAGGA"> F  </i>
   </separator>
   <separator name="electronic convergence" >
    <i type="int" name="NELM">    60</i>
    <i type="int" name="NELMDL">    -5</i>
    <i type="int" name="NELMIN">     2</i>
    <i name="ENINI">    350.00000000</i>
    <separator name="electronic convergence detail" >
     <i type="logical" name="LDIAG"> T  </i>
     <i type="logical" name="LSUBROT"> T  </i>
     <i name="WEIMIN">      0.00000000</i>
     <i name="EBREAK">      0.00000025</i>
     <i name="DEPER">      0.30000000</i>
     <i type="int" name="NRMM">     4</i>
     <i name="TIME">      0.40000000</i>
    </separator>
   </separator>
   <separator name="electronic mixer" >
    <i name="AMIX">      0.40000000</i>
    <i name="BMIX">      1.00000000</i>
    <i name="AMIN">      0.10000000</i>
    <i name="AMIX_MAG">      1.60000000</i>
    <i name="BMIX_MAG">      1.00000000</i>
    <separator name="electronic mixer details" >
     <i type="int" name="IMIX">     4</i>
     <i type="int" name="MAXMIX">   -45</i>
     <i name="WC">    100.00000000</i>
     <i type="int" name="INIMIX">     1</i>
     <i type="int" name="MIXPRE">     1</i>
     <i type="int" name="MREMOVE">     5</i>
    </separator>
   </separator>
   <separator name="electronic dipolcorrection" >
    <i type="logical" name="LDIPOL"> F  </i>
    <i type="logical" name="LMONO"> F  </i>
    <i type="int" name="IDIPOL">     0</i>
    <i name="EPSILON">      1.00000000</i>
    <v name="DIPOL">   -100.00000000   -100.00000000   -100.00000000</v>
    <i name="EFIELD">      0.00000000</i>
   </separator>
  </separator>
  <separator name="grids" >
   <i type="int" name="NGX">    18</i>
   <i type="int" name="NGY">    18</i>
   <i type="int" name="NGZ">    18</i>
   <i type="int" name="NGXF">    40</i>
   <i type="int" name="NGYF">    40</i>
   <i type="int" name="NGZF">    40</i>
   <i type="logical" name="ADDGRID"> F  </i>
  </separator>
  <separator name="ionic" >
   <i type="int" name="NSW">     0</i>
   <i type="int" name="IBRION">    -1</i>
   <i type="int" name="ISIF">     2</i>
   <i name="PSTRESS">      0.00000000</i>
   <i name="EDIFFG">     -0.02000000</i>
   <i type="int" name="NFREE">     0</i>
   <i name="POTIM">      0.50000000</i>
   <i name="SMASS">     -3.00000000</i>
   <i name="SCALEE">      1.00000000</i>
  </separator>
  <separator name="ionic md" >
   <i name="TEBEG">      0.00010000</i>
   <i name="TEEND">      0.00010000</i>
   <i type="int" name="NBLOCK">     1</i>
   <i type="int" name="KBLOCK">     1</i>
   <i type="int" name="NPACO">   256</i>
   <i name="APACO">     16.00000000</i>
  </separator>
  <separator name="symmetry" >
   <i type="int" name="ISYM">     2</i>
   <i name="SYMPREC">      0.00001000</i>
  </separator>
  <separator name="dos" >
   <i type="logical" name="LORBIT"> F  </i>
   <v name="RWIGS">     -1.00000000</v>
   <i type="int" name="NEDOS">   301</i>
   <i name="EMIN">     10.00000000</i>
   <i name="EMAX">    -10.00000000</i>
   <i name="EFERMI">      0.00000000</i>
  </separator>
  <separator name="writing" >
   <i type="int" name="NWRITE">     2</i>
   <i type="logical" name="LWAVE"> T  </i>
   <i type="logical" name="LCHARG"> T  </i>
   <i type="logical" name="LPARD"> F  </i>
   <i type="logical" name="LVTOT"> F  </i>
   <i type="logical" name="LVHAR"> F  </i>
   <i type="logical" name="LELF"> F  </i>
   <i type="logical" name="LOPTICS"> F  </i>
   <v name="STM">      0.00000000      0.00000000      0.00000000      0.00000000      0.00000000      0.00000000      0.00000000</v>
  </separator>
  <separator name="performance" >
   <i type="int" name="NPAR">     1</i>
   <i type="int" name="NSIM">     4</i>
   <i type="int" name="NBLK">    -1</i>
   <i type="logical" name="LPLANE"> T  </i>
   <i type="logical" name="LSCALAPACK"> F  </i>
   <i type="logical" name="LSCAAWARE"> F  </i>
   <i type="logical" name="LSCALU"> F  </i>
   <i type="logical" name="LASYNC"> F  </i>
   <i type="logical" name="LORBITALREAL"> F  </i>
  </separator>
  <separator name="miscellaneous" >
   <i type="int" name="IDIOT">     3</i>
   <i type="logical" name="LMUSIC"> F  </i>
   <v name="POMASS">     24.30500000</v>
   <v name="DARWINR">      0.00000000</v>
   <v name="DARWINV">      1.00000000</v>
   <i type="logical" name="LCORR"> T  </i>
  </separator>
  <i type="logical" name="GGA_COMPAT"> T  </i>
  <i type="logical" name="LBERRY"> F  </i>
  <i type="int" name="ICORELEVEL">     0</i>
  <i type="logical" name="LDAU"> F  </i>
  <i type="int" name="I_CONSTRAINED_M">     0</i>
  <separator name="electronic exchange-correlation" >
   <i type="string" name="GGA">--</i>
   <i type="int" name="VOSKOWN">     0</i>
   <i type="logical" name="LHFCALC"> F  </i>
   <i type="string" name="PRECFOCK"></i>
   <i type="logical" name="LHFONE"> F  </i>
   <i type="logical" name="LRHFCALC"> F  </i>
   <i type="logical" name="LTHOMAS"> F  </i>
   <i type="logical" name="LMODELHF"> F  </i>
   <i name="ENCUT4O">     -1.00000000</i>
   <i type="int" name="EXXOEP">     0</i>
   <i type="int" name="FOURORBIT">     0</i>
   <i name="AEXX">      0.00000000</i>
   <i name="HFALPHA">      0.00000000</i>
   <i name="ALDAX">      1.00000000</i>
   <i name="AGGAX">      1.00000000</i>
   <i name="ALDAC">      1.00000000</i>
   <i name="AGGAC">      1.00000000</i>
   <i type="int" name="NKREDX">     1</i>
   <i type="int" name="NKREDY">     1</i>
   <i type="int" name="NKREDZ">     1</i>
   <i type="logical" name="SHIFTRED"> F  </i>
   <i type="logical" name="ODDONLY"> F  </i>
   <i type="logical" name="EVENONLY"> F  </i>
   <i type="int" name="LMAXFOCK">     0</i>
   <i type="int" name="NMAXFOCKAE">     0</i>
   <i type="logical" name="LFOCKAEDFT"> F  </i>
   <i name="HFSCREEN">      0.00000000</i>
   <i name="HFSCREENC">      0.00000000</i>
  </separator>
  <separator name="vdW DFT" >
   <i type="logical" name="LUSE_VDW"> F  </i>
   <i name="Zab_VDW">     -0.84910000</i>
   <i name="PARAM1">      0.12340000</i>
   <i name="PARAM2">      1.00000000</i>
   <i name="PARAM3">      0.00000000</i>
  </separator>
  <separator name="model GW" >
   <i type="int" name="MODEL_GW">     0</i>
   <i name="MODEL_EPS0">      9.96008964</i>
   <i name="MODEL_ALPHA">      1.00000000</i>
  </separator>
  <separator name="linear response parameters" >
   <i type="logical" name="LEPSILON"> F  </i>
   <i type="logical" name="LRPA"> F  </i>
   <i type="logical" name="LNABLA"> F  </i>
   <i type="logical" name="LVEL"> F  </i>
   <i type="int" name="KINTER">     0</i>
   <i name="CSHIFT">      0.10000000</i>
   <i name="OMEGAMAX">     -1.00000000</i>
  </separator>
  <separator name="orbital magnetization" >
   <i type="logical" name="NUCIND"> F  </i>
   <v name="MAGPOS">      0.00000000      0.00000000      0.00000000</v>
   <i type="logical" name="LNICSALL"> T  </i>
   <i type="logical" name="ORBITALMAG"> F  </i>
   <i type="logical" name="LMAGBLOCH"> F  </i>
   <i type="logical" name="LCHIMAG"> F  </i>
   <i type="logical" name="LGAUGE"> T  </i>
   <i type="int" name="MAGATOM">     0</i>
   <v name="MAGDIPOL">      0.00000000      0.00000000      0.00000000</v>
   <v name="AVECCONST">      0.00000000      0.00000000      0.00000000</v>
  </separator>
  <separator name="response functions" >
   <i type="logical" name="LADDER"> F  </i>
   <i type="logical" name="LHARTREE"> T  </i>
   <i type="int" name="IBSE">     0</i>
   <i type="logical" name="LTCTE"> F  </i>
   <i type="logical" name="LTETE"> F  </i>
   <i type="logical" name="LFXCEPS"> F  </i>
   <i type="logical" name="L2ORDER"> F  </i>
   <i type="logical" name="LUSEW"> F  </i>
   <i name="ENCUTGW">     -2.00000000</i>
   <i name="ENCUTGWSOFT">     -2.00000000</i>
   <i name="ENCUTLF">     -1.00000000</i>
   <i type="int" name="LMAXMP2">    -1</i>
   <i name="SCISSOR">      0.00000000</i>
   <i type="int" name="NOMEGA">     0</i>
   <i type="int" name="NOMEGAR">     0</i>
   <i type="int" name="NBANDSGW">    -1</i>
   <i type="int" name="NBANDSO">    -1</i>
   <i type="int" name="NBANDSV">    -1</i>
   <i name="OPTEMAX">      0.00000000</i>
   <i type="int" name="NELM">    60</i>
   <i type="int" name="DIM">     3</i>
   <i type="int" name="ANTIRES">     0</i>
   <i name="OMEGAMAX">    -30.00000000</i>
   <i name="OMEGATL">   -200.00000000</i>
   <i type="int" name="OMEGAGRID">     0</i>
   <i name="CSHIFT">     -0.10000000</i>
   <i type="logical" name="SELFENERGY"> F  </i>
   <i type="logical" name="LSPECTRAL"> F  </i>
   <i type="logical" name="ODDONLYGW"> F  </i>
   <i type="logical" name="EVENONLYGW"> F  </i>
   <i type="int" name="NKREDLFX">     1</i>
   <i type="int" name="NKREDLFY">     1</i>
   <i type="int" name="NKREDLFZ">     1</i>
   <i type="int" name="MAXMEM">  1800</i>
   <i type="int" name="TELESCOPE">     0</i>
  </separator>
 </parameters>
 <atominfo>
  <atoms>       1 </atoms>
  <types>       1 </types>
  <array name="atoms" >
   <dimension dim="1">ion</dimension>
   <field type="string">element</field>
   <field type="int">atomtype</field>
   <set>
    <rc><c>Mg</c><c>   1</c></rc>
   </set>
  </array>
  <array name="atomtypes" >
   <dimension dim="1">type</dimension>
   <field type="int">atomspertype</field>
   <field type="string">element</field>
   <field>mass</field>
   <field>valence</field>
   <field type="string">pseudopotential</field>
   <set>
    <rc><c>   1</c><c>Mg</c><c>     24.30500000</c><c>     10.00000000</c><c>  PAW_PBE Mg_sv 12Apr2007               </c></rc>
   </set>
  </array>
 </atominfo>
 <structure name="initialpos" >
  <crystal>
   <varray name="basis" >
    <v>       0.00000000       2.02469993       2.02469993 </v>
    <v>       2.02469993       0.00000000       2.02469993 </v>
    <v>       2.02469993       2.02469993       0.00000000 </v>
   </varray>
   <i name="volume">     16.60014941 </i>
   <varray name="rec_basis" >
    <v>      -0.24695017       0.24695017       0.24695017 </v>
    <v>       0.24695017      -0.24695017       0.24695017 </v>
    <v>       0.24695017       0.24695017      -0.24695017 </v>
   </varray>
  </crystal>
  <varray name="positions" >
   <v>       0.00000000       0.00000000       0.00000000 </v>
  </varray>
 </structure>
 <calculation>
  <scstep>
   <time name="dav">    0.03    0.01</time>
   <time name="total">    0.16    0.08</time>
   <energy>
    <i name="alphaZ">     43.69369107 </i>
    <i name="ewald">   -815.19534310 </i>
    <i name="hartreedc">   -569.41449644 </i>
    <i name="XCdc">     66.19466960 </i>
    <i name="pawpsdc">   1189.64912170 </i>
    <i name="pawaedc">  -1278.59308607 </i>
    <i name="eentropy">     -0.00000000 </i>
    <i name="bandstr">   -323.58530980 </i>
    <i name="atom">   1725.54783928 </i>
    <i name="e_fr_energy">     38.29708624 </i>
    <i name="e_wo_entrp">     38.29708624 </i>
    <i name="e_0_energy">     38.29708624 </i>
   </energy>
  </scstep>
  <scstep>
   <time name="dav">    0.03    0.01</time>
   <time name="total">    0.03    0.01</time>
   <energy>
    <i name="e_fr_energy">    -10.10399153 </i>
    <i name="e_wo_entrp">    -10.10399153 </i>
    <i name="e_0_energy">    -10.10399153 </i>
   </energy>
  </scstep>
  <scstep>
   <time name="dav">    0.03    0.02</time>
   <time name="total">    0.03    0.02</time>
   <energy>
    <i name="e_fr_energy">    -10.95760488 </i>
    <i name="e_wo_entrp">    -10.95760488 </i>
    <i name="e_0_energy">    -10.95760488 </i>
   </energy>
  </scstep>
  <scstep>
   <time name="dav">    0.03    0.01</time>
   <time name="total">    0.03    0.02</time>
   <energy>
    <i name="e_fr_energy">    -10.95895104 </i>
    <i name="e_wo_entrp">    -10.95895104 </i>
    <i name="e_0_energy">    -10.95895104 </i>
   </energy>
  </scstep>
  <scstep>
   <time name="dav">    0.03    0.02</time>
   <time name="total">    0.04    0.02</time>
   <energy>
    <i name="e_fr_energy">    -10.95895959 </i>
    <i name="e_wo_entrp">    -10.95895959 </i>
    <i name="e_0_energy">    -10.95895959 </i>
   </energy>
  </scstep>
  <scstep>
   <time name="dav">    0.02    0.01</time>
   <time name="total">    0.17    0.09</time>
   <energy>
    <i name="e_fr_energy">    -11.15030393 </i>
    <i name="e_wo_entrp">    -11.15030393 </i>
    <i name="e_0_energy">    -11.15030393 </i>
   </energy>
  </scstep>
  <scstep>
   <time name="dav">    0.03    0.01</time>
   <time name="total">    0.17    0.09</time>
   <energy>
    <i name="e_fr_energy">    -11.24024998 </i>
    <i name="e_wo_entrp">    -11.24024998 </i>
    <i name="e_0_energy">    -11.24024998 </i>
   </energy>
  </scstep>
  <scstep>
   <time name="dav">    0.03    0.02</time>
   <time name="total">    0.18    0.09</time>
   <energy>
    <i name="e_fr_energy">    -11.25416810 </i>
    <i name="e_wo_entrp">    -11.25416810 </i>
    <i name="e_0_energy">    -11.25416810 </i>
   </energy>
  </scstep>
  <scstep>
   <time name="dav">    0.02    0.01</time>
   <time name="total">    0.17    0.08</time>
   <energy>
    <i name="e_fr_energy">    -11.25627233 </i>
    <i name="e_wo_entrp">    -11.25627233 </i>
    <i name="e_0_energy">    -11.25627233 </i>
   </energy>
  </scstep>
  <scstep>
   <time name="dav">    0.03    0.01</time>
   <time name="total">    0.17    0.09</time>
   <energy>
    <i name="e_fr_energy">    -11.25676924 </i>
    <i name="e_wo_entrp">    -11.25676924 </i>
    <i name="e_0_energy">    -11.25676924 </i>
   </energy>
  </scstep>
  <scstep>
   <time name="dav">    0.03    0.01</time>
   <time name="total">    0.17    0.08</time>
   <energy>
    <i name="e_fr_energy">    -11.25684347 </i>
    <i name="e_wo_entrp">    -11.25684347 </i>
    <i name="e_0_energy">    -11.25684347 </i>
   </energy>
  </scstep>
  <scstep>
   <time name="dav">    0.02    0.01</time>
   <time name="total">    0.15    0.07</time>
   <energy>
    <i name="alphaZ">     43.69369107 </i>
    <i name="ewald">   -815.19534310 </i>
    <i name="hartreedc">   -556.85807408 </i>
    <i name="XCdc">     65.61234714 </i>
    <i name="pawpsdc">   1184.26209006 </i>
    <i name="pawaedc">  -1273.87529550 </i>
    <i name="eentropy">     -0.00000000 </i>
    <i name="bandstr">   -384.44410440 </i>
    <i name="atom">   1725.54783928 </i>
    <i name="e_fr_energy">    -11.25684952 </i>
    <i name="e_wo_entrp">    -11.25684952 </i>
    <i name="e_0_energy">    -11.25684952 </i>
   </energy>
  </scstep>
  <parameters_embedded>
   <separator name="dft+d2" >
    <i type="logical" name="LVDW"> F  </i>
   </separator>
  </parameters_embedded>
  <structure>
   <crystal>
    <varray name="basis" >
     <v>       0.00000000       2.02469993       2.02469993 </v>
     <v>       2.02469993       0.00000000       2.02469993 </v>
     <v>       2.02469993       2.02469993       0.00000000 </v>
    </varray>
    <i name="volume">     16.60014941 </i>
    <varray name="rec_basis" >
     <v>      -0.24695017       0.24695017       0.24695017 </v>
     <v>       0.24695017      -0.24695017       0.24695017 </v>
     <v>       0.24695017       0.24695017      -0.24695017 </v>
    </varray>
   </crystal>
   <varray name="positions" >
    <v>       0.00000000       0.00000000       0.00000000 </v>
   </varray>
  </structure>
  <varray name="forces" >
   <v>      -0.00000000       0.00000000       0.00000000 </v>
  </varray>
  <varray name="stress" >
   <v>   -1624.66458555      -0.00000000       0.00000000 </v>
   <v>       0.00000000   -1624.66458555       0.00000000 </v>
   <v>      -0.00000000      -0.00000000   -1624.66458555 </v>
  </varray>
  <energy>
   <i name="e_fr_energy">    -11.25684952 </i>
   <i name="e_wo_entrp">    -11.25684952 </i>
   <i name="e_0_energy">     -0.00000000 </i>
  </energy>
  <time name="totalsc">    1.98    0.99</time>
  <eigenvalues>
   <array>
    <dimension dim="1">band</dimension>
    <dimension dim="2">kpoint</dimension>
    <dimension dim="3">spin</dimension>
    <field>eigene</field>
    <field>occ</field>
    <set>
     <set comment="spin 1">
      <set comment="kpoint 1">
       <r>  -71.9430    1.0000 </r>
       <r>  -38.7999    1.0000 </r>
       <r>  -38.7999    1.0000 </r>
       <r>  -38.7999    1.0000 </r>
       <r>   -3.8784    1.0000 </r>
       <r>   18.7745    0.0000 </r>
       <r>   18.7745    0.0000 </r>
       <r>   18.7745    0.0000 </r>
       <r>   21.5349    0.0000 </r>
       <r>   22.5918    0.0000 </r>
      </set>
     </set>
     <set comment="spin 2">
      <set comment="kpoint 1">
       <r>  -71.9436    1.0000 </r>
       <r>  -38.8002    1.0000 </r>
       <r>  -38.8002    1.0000 </r>
       <r>  -38.8002    1.0000 </r>
       <r>   -3.8789    1.0000 </r>
       <r>   18.7744    0.0000 </r>
       <r>   18.7744    0.0000 </r>
       <r>   18.7744    0.0000 </r>
       <r>   21.5340    0.0000 </r>
       <r>   22.5918    0.0000 </r>
      </set>
     </set>
    </set>
   </array>
  </eigenvalues>
  <separator name="orbital magnetization" >
   <v name="MAGDIPOLOUT">      0.00000000      0.00000000      0.00000000</v>
  </separator>
  <dos>
   <i name="efermi">     -3.14149497 </i>
   <total>
    <array>
     <dimension dim="1">gridpoints</dimension>
     <dimension dim="2">spin</dimension>
     <field>energy</field>
     <field>total</field>
     <field>integrated</field>
     <set>
      <set comment="spin 1">
       <r>   -76.6704     0.0000     0.0000 </r>
       <r>   -76.3237     0.0000     0.0000 </r>
       <r>   -75.9771     0.0000     0.0000 </r>
       <r>   -75.6305     0.0000     0.0000 </r>
       <r>   -75.2838     0.0000     0.0000 </r>
       <r>   -74.9372     0.0000     0.0000 </r>
       <r>   -74.5906     0.0000     0.0000 </r>
       <r>   -74.2440     0.0000     0.0000 </r>
       <r>   -73.8973     0.0000     0.0000 </r>
       <r>   -73.5507     0.0000     0.0000 </r>
       <r>   -73.2041     0.0000     0.0000 </r>
       <r>   -72.8574     0.0000     0.0000 </r>
       <r>   -72.5108     0.0000     0.0000 </r>
       <r>   -72.1642     0.0025     0.0009 </r>
       <r>   -71.8175     2.7726     0.9619 </r>
       <r>   -71.4709     0.1098     1.0000 </r>
       <r>   -71.1243     0.0000     1.0000 </r>
       <r>   -70.7777     0.0000     1.0000 </r>
       <r>   -70.4310     0.0000     1.0000 </r>
       <r>   -70.0844     0.0000     1.0000 </r>
       <r>   -69.7378     0.0000     1.0000 </r>
       <r>   -69.3911     0.0000     1.0000 </r>
       <r>   -69.0445     0.0000     1.0000 </r>
       <r>   -68.6979     0.0000     1.0000 </r>
       <r>   -68.3512     0.0000     1.0000 </r>
       <r>   -68.0046     0.0000     1.0000 </r>
       <r>   -67.6580     0.0000     1.0000 </r>
       <r>   -67.3114     0.0000     1.0000 </r>
       <r>   -66.9647     0.0000     1.0000 </r>
       <r>   -66.6181     0.0000     1.0000 </r>
       <r>   -66.2715     0.0000     1.0000 </r>
       <r>   -65.9248     0.0000     1.0000 </r>
       <r>   -65.5782     0.0000     1.0000 </r>
       <r>   -65.2316     0.0000     1.0000 </r>
       <r>   -64.8849     0.0000     1.0000 </r>
       <r>   -64.5383     0.0000     1.0000 </r>
       <r>   -64.1917     0.0000     1.0000 </r>
       <r>   -63.8451     0.0000     1.0000 </r>
       <r>   -63.4984     0.0000     1.0000 </r>
       <r>   -63.1518     0.0000     1.0000 </r>
       <r>   -62.8052     0.0000     1.0000 </r>
       <r>   -62.4585     0.0000     1.0000 </r>
       <r>   -62.1119     0.0000     1.0000 </r>
       <r>   -61.7653     0.0000     1.0000 </r>
       <r>   -61.4187     0.0000     1.0000 </r>
       <r>   -61.0720     0.0000     1.0000 </r>
       <r>   -60.7254     0.0000     1.0000 </r>
       <r>   -60.3788     0.0000     1.0000 </r>
       <r>   -60.0321     0.0000     1.0000 </r>
       <r>   -59.6855     0.0000     1.0000 </r>
       <r>   -59.3389     0.0000     1.0000 </r>
       <r>   -58.9922     0.0000     1.0000 </r>
       <r>   -58.6456     0.0000     1.0000 </r>
       <r>   -58.2990     0.0000     1.0000 </r>
       <r>   -57.9524     0.0000     1.0000 </r>
       <r>   -57.6057     0.0000     1.0000 </r>
       <r>   -57.2591     0.0000     1.0000 </r>
       <r>   -56.9125     0.0000     1.0000 </r>
       <r>   -56.5658     0.0000     1.0000 </r>
       <r>   -56.2192     0.0000     1.0000 </r>
       <r>   -55.8726     0.0000     1.0000 </r>
       <r>   -55.5259     0.0000     1.0000 </r>
       <r>   -55.1793     0.0000     1.0000 </r>
       <r>   -54.8327     0.0000     1.0000 </r>
       <r>   -54.4861     0.0000     1.0000 </r>
       <r>   -54.1394     0.0000     1.0000 </r>
       <r>   -53.7928     0.0000     1.0000 </r>
       <r>   -53.4462     0.0000     1.0000 </r>
       <r>   -53.0995     0.0000     1.0000 </r>
       <r>   -52.7529     0.0000     1.0000 </r>
       <r>   -52.4063     0.0000     1.0000 </r>
       <r>   -52.0596     0.0000     1.0000 </r>
       <r>   -51.7130     0.0000     1.0000 </r>
       <r>   -51.3664     0.0000     1.0000 </r>
       <r>   -51.0198     0.0000     1.0000 </r>
       <r>   -50.6731     0.0000     1.0000 </r>
       <r>   -50.3265     0.0000     1.0000 </r>
       <r>   -49.9799     0.0000     1.0000 </r>
       <r>   -49.6332     0.0000     1.0000 </r>
       <r>   -49.2866     0.0000     1.0000 </r>
       <r>   -48.9400     0.0000     1.0000 </r>
       <r>   -48.5933     0.0000     1.0000 </r>
       <r>   -48.2467     0.0000     1.0000 </r>
       <r>   -47.9001     0.0000     1.0000 </r>
       <r>   -47.5535     0.0000     1.0000 </r>
       <r>   -47.2068     0.0000     1.0000 </r>
       <r>   -46.8602     0.0000     1.0000 </r>
       <r>   -46.5136     0.0000     1.0000 </r>
       <r>   -46.1669     0.0000     1.0000 </r>
       <r>   -45.8203     0.0000     1.0000 </r>
       <r>   -45.4737     0.0000     1.0000 </r>
       <r>   -45.1270     0.0000     1.0000 </r>
       <r>   -44.7804     0.0000     1.0000 </r>
       <r>   -44.4338     0.0000     1.0000 </r>
       <r>   -44.0872     0.0000     1.0000 </r>
       <r>   -43.7405     0.0000     1.0000 </r>
       <r>   -43.3939     0.0000     1.0000 </r>
       <r>   -43.0473     0.0000     1.0000 </r>
       <r>   -42.7006     0.0000     1.0000 </r>
       <r>   -42.3540     0.0000     1.0000 </r>
       <r>   -42.0074     0.0000     1.0000 </r>
       <r>   -41.6607     0.0000     1.0000 </r>
       <r>   -41.3141     0.0000     1.0000 </r>
       <r>   -40.9675     0.0000     1.0000 </r>
       <r>   -40.6209     0.0000     1.0000 </r>
       <r>   -40.2742     0.0000     1.0000 </r>
       <r>   -39.9276     0.0000     1.0000 </r>
       <r>   -39.5810     0.0000     1.0000 </r>
       <r>   -39.2343     0.0000     1.0000 </r>
       <r>   -38.8877     0.9275     1.3215 </r>
       <r>   -38.5411     7.7262     3.9996 </r>
       <r>   -38.1944     0.0011     4.0000 </r>
       <r>   -37.8478     0.0000     4.0000 </r>
       <r>   -37.5012     0.0000     4.0000 </r>
       <r>   -37.1546     0.0000     4.0000 </r>
       <r>   -36.8079     0.0000     4.0000 </r>
       <r>   -36.4613     0.0000     4.0000 </r>
       <r>   -36.1147     0.0000     4.0000 </r>
       <r>   -35.7680     0.0000     4.0000 </r>
       <r>   -35.4214     0.0000     4.0000 </r>
       <r>   -35.0748     0.0000     4.0000 </r>
       <r>   -34.7281     0.0000     4.0000 </r>
       <r>   -34.3815     0.0000     4.0000 </r>
       <r>   -34.0349     0.0000     4.0000 </r>
       <r>   -33.6883     0.0000     4.0000 </r>
       <r>   -33.3416     0.0000     4.0000 </r>
       <r>   -32.9950     0.0000     4.0000 </r>
       <r>   -32.6484     0.0000     4.0000 </r>
       <r>   -32.3017     0.0000     4.0000 </r>
       <r>   -31.9551     0.0000     4.0000 </r>
       <r>   -31.6085     0.0000     4.0000 </r>
       <r>   -31.2618     0.0000     4.0000 </r>
       <r>   -30.9152     0.0000     4.0000 </r>
       <r>   -30.5686     0.0000     4.0000 </r>
       <r>   -30.2220     0.0000     4.0000 </r>
       <r>   -29.8753     0.0000     4.0000 </r>
       <r>   -29.5287     0.0000     4.0000 </r>
       <r>   -29.1821     0.0000     4.0000 </r>
       <r>   -28.8354     0.0000     4.0000 </r>
       <r>   -28.4888     0.0000     4.0000 </r>
       <r>   -28.1422     0.0000     4.0000 </r>
       <r>   -27.7955     0.0000     4.0000 </r>
       <r>   -27.4489     0.0000     4.0000 </r>
       <r>   -27.1023     0.0000     4.0000 </r>
       <r>   -26.7557     0.0000     4.0000 </r>
       <r>   -26.4090     0.0000     4.0000 </r>
       <r>   -26.0624     0.0000     4.0000 </r>
       <r>   -25.7158     0.0000     4.0000 </r>
       <r>   -25.3691     0.0000     4.0000 </r>
       <r>   -25.0225     0.0000     4.0000 </r>
       <r>   -24.6759     0.0000     4.0000 </r>
       <r>   -24.3292     0.0000     4.0000 </r>
       <r>   -23.9826     0.0000     4.0000 </r>
       <r>   -23.6360     0.0000     4.0000 </r>
       <r>   -23.2894     0.0000     4.0000 </r>
       <r>   -22.9427     0.0000     4.0000 </r>
       <r>   -22.5961     0.0000     4.0000 </r>
       <r>   -22.2495     0.0000     4.0000 </r>
       <r>   -21.9028     0.0000     4.0000 </r>
       <r>   -21.5562     0.0000     4.0000 </r>
       <r>   -21.2096     0.0000     4.0000 </r>
       <r>   -20.8629     0.0000     4.0000 </r>
       <r>   -20.5163     0.0000     4.0000 </r>
       <r>   -20.1697     0.0000     4.0000 </r>
       <r>   -19.8231     0.0000     4.0000 </r>
       <r>   -19.4764     0.0000     4.0000 </r>
       <r>   -19.1298     0.0000     4.0000 </r>
       <r>   -18.7832     0.0000     4.0000 </r>
       <r>   -18.4365     0.0000     4.0000 </r>
       <r>   -18.0899     0.0000     4.0000 </r>
       <r>   -17.7433     0.0000     4.0000 </r>
       <r>   -17.3967     0.0000     4.0000 </r>
       <r>   -17.0500     0.0000     4.0000 </r>
       <r>   -16.7034     0.0000     4.0000 </r>
       <r>   -16.3568     0.0000     4.0000 </r>
       <r>   -16.0101     0.0000     4.0000 </r>
       <r>   -15.6635     0.0000     4.0000 </r>
       <r>   -15.3169     0.0000     4.0000 </r>
       <r>   -14.9702     0.0000     4.0000 </r>
       <r>   -14.6236     0.0000     4.0000 </r>
       <r>   -14.2770     0.0000     4.0000 </r>
       <r>   -13.9304     0.0000     4.0000 </r>
       <r>   -13.5837     0.0000     4.0000 </r>
       <r>   -13.2371     0.0000     4.0000 </r>
       <r>   -12.8905     0.0000     4.0000 </r>
       <r>   -12.5438     0.0000     4.0000 </r>
       <r>   -12.1972     0.0000     4.0000 </r>
       <r>   -11.8506     0.0000     4.0000 </r>
       <r>   -11.5039     0.0000     4.0000 </r>
       <r>   -11.1573     0.0000     4.0000 </r>
       <r>   -10.8107     0.0000     4.0000 </r>
       <r>   -10.4641     0.0000     4.0000 </r>
       <r>   -10.1174     0.0000     4.0000 </r>
       <r>    -9.7708     0.0000     4.0000 </r>
       <r>    -9.4242     0.0000     4.0000 </r>
       <r>    -9.0775     0.0000     4.0000 </r>
       <r>    -8.7309     0.0000     4.0000 </r>
       <r>    -8.3843     0.0000     4.0000 </r>
       <r>    -8.0376     0.0000     4.0000 </r>
       <r>    -7.6910     0.0000     4.0000 </r>
       <r>    -7.3444     0.0000     4.0000 </r>
       <r>    -6.9978     0.0000     4.0000 </r>
       <r>    -6.6511     0.0000     4.0000 </r>
       <r>    -6.3045     0.0000     4.0000 </r>
       <r>    -5.9579     0.0000     4.0000 </r>
       <r>    -5.6112     0.0000     4.0000 </r>
       <r>    -5.2646     0.0000     4.0000 </r>
       <r>    -4.9180     0.0000     4.0000 </r>
       <r>    -4.5713     0.0000     4.0000 </r>
       <r>    -4.2247     0.0000     4.0000 </r>
       <r>    -3.8781     1.4483     4.5020 </r>
       <r>    -3.5315     1.4366     5.0000 </r>
       <r>    -3.1848     0.0000     5.0000 </r>
       <r>    -2.8382     0.0000     5.0000 </r>
       <r>    -2.4916     0.0000     5.0000 </r>
       <r>    -2.1449     0.0000     5.0000 </r>
       <r>    -1.7983     0.0000     5.0000 </r>
       <r>    -1.4517     0.0000     5.0000 </r>
       <r>    -1.1050     0.0000     5.0000 </r>
       <r>    -0.7584     0.0000     5.0000 </r>
       <r>    -0.4118     0.0000     5.0000 </r>
       <r>    -0.0652     0.0000     5.0000 </r>
       <r>     0.2815     0.0000     5.0000 </r>
       <r>     0.6281     0.0000     5.0000 </r>
       <r>     0.9747     0.0000     5.0000 </r>
       <r>     1.3214     0.0000     5.0000 </r>
       <r>     1.6680     0.0000     5.0000 </r>
       <r>     2.0146     0.0000     5.0000 </r>
       <r>     2.3613     0.0000     5.0000 </r>
       <r>     2.7079     0.0000     5.0000 </r>
       <r>     3.0545     0.0000     5.0000 </r>
       <r>     3.4011     0.0000     5.0000 </r>
       <r>     3.7478     0.0000     5.0000 </r>
       <r>     4.0944     0.0000     5.0000 </r>
       <r>     4.4410     0.0000     5.0000 </r>
       <r>     4.7877     0.0000     5.0000 </r>
       <r>     5.1343     0.0000     5.0000 </r>
       <r>     5.4809     0.0000     5.0000 </r>
       <r>     5.8276     0.0000     5.0000 </r>
       <r>     6.1742     0.0000     5.0000 </r>
       <r>     6.5208     0.0000     5.0000 </r>
       <r>     6.8674     0.0000     5.0000 </r>
       <r>     7.2141     0.0000     5.0000 </r>
       <r>     7.5607     0.0000     5.0000 </r>
       <r>     7.9073     0.0000     5.0000 </r>
       <r>     8.2540     0.0000     5.0000 </r>
       <r>     8.6006     0.0000     5.0000 </r>
       <r>     8.9472     0.0000     5.0000 </r>
       <r>     9.2939     0.0000     5.0000 </r>
       <r>     9.6405     0.0000     5.0000 </r>
       <r>     9.9871     0.0000     5.0000 </r>
       <r>    10.3337     0.0000     5.0000 </r>
       <r>    10.6804     0.0000     5.0000 </r>
       <r>    11.0270     0.0000     5.0000 </r>
       <r>    11.3736     0.0000     5.0000 </r>
       <r>    11.7203     0.0000     5.0000 </r>
       <r>    12.0669     0.0000     5.0000 </r>
       <r>    12.4135     0.0000     5.0000 </r>
       <r>    12.7602     0.0000     5.0000 </r>
       <r>    13.1068     0.0000     5.0000 </r>
       <r>    13.4534     0.0000     5.0000 </r>
       <r>    13.8000     0.0000     5.0000 </r>
       <r>    14.1467     0.0000     5.0000 </r>
       <r>    14.4933     0.0000     5.0000 </r>
       <r>    14.8399     0.0000     5.0000 </r>
       <r>    15.1866     0.0000     5.0000 </r>
       <r>    15.5332     0.0000     5.0000 </r>
       <r>    15.8798     0.0000     5.0000 </r>
       <r>    16.2265     0.0000     5.0000 </r>
       <r>    16.5731     0.0000     5.0000 </r>
       <r>    16.9197     0.0000     5.0000 </r>
       <r>    17.2663     0.0000     5.0000 </r>
       <r>    17.6130     0.0000     5.0000 </r>
       <r>    17.9596     0.0000     5.0000 </r>
       <r>    18.3062     0.0000     5.0000 </r>
       <r>    18.6529     0.3699     5.1282 </r>
       <r>    18.9995     8.2785     7.9978 </r>
       <r>    19.3461     0.0063     8.0000 </r>
       <r>    19.6928     0.0000     8.0000 </r>
       <r>    20.0394     0.0000     8.0000 </r>
       <r>    20.3860     0.0000     8.0000 </r>
       <r>    20.7326     0.0000     8.0000 </r>
       <r>    21.0793     0.0000     8.0000 </r>
       <r>    21.4259     0.1775     8.0615 </r>
       <r>    21.7725     2.7063     8.9996 </r>
       <r>    22.1192     0.0011     9.0000 </r>
       <r>    22.4658     0.1077     9.0373 </r>
       <r>    22.8124     2.7746     9.9991 </r>
       <r>    23.1591     0.0026    10.0000 </r>
       <r>    23.5057     0.0000    10.0000 </r>
       <r>    23.8523     0.0000    10.0000 </r>
       <r>    24.1989     0.0000    10.0000 </r>
       <r>    24.5456     0.0000    10.0000 </r>
       <r>    24.8922     0.0000    10.0000 </r>
       <r>    25.2388     0.0000    10.0000 </r>
       <r>    25.5855     0.0000    10.0000 </r>
       <r>    25.9321     0.0000    10.0000 </r>
       <r>    26.2787     0.0000    10.0000 </r>
       <r>    26.6253     0.0000    10.0000 </r>
       <r>    26.9720     0.0000    10.0000 </r>
       <r>    27.3186     0.0000    10.0000 </r>
      </set>
      <set comment="spin 2">
       <r>   -76.6704     0.0000     0.0000 </r>
       <r>   -76.3237     0.0000     0.0000 </r>
       <r>   -75.9771     0.0000     0.0000 </r>
       <r>   -75.6305     0.0000     0.0000 </r>
       <r>   -75.2838     0.0000     0.0000 </r>
       <r>   -74.9372     0.0000     0.0000 </r>
       <r>   -74.5906     0.0000     0.0000 </r>
       <r>   -74.2440     0.0000     0.0000 </r>
       <r>   -73.8973     0.0000     0.0000 </r>
       <r>   -73.5507     0.0000     0.0000 </r>
       <r>   -73.2041     0.0000     0.0000 </r>
       <r>   -72.8574     0.0000     0.0000 </r>
       <r>   -72.5108     0.0000     0.0000 </r>
       <r>   -72.1642     0.0026     0.0009 </r>
       <r>   -71.8175     2.7746     0.9627 </r>
       <r>   -71.4709     0.1077     1.0000 </r>
       <r>   -71.1243     0.0000     1.0000 </r>
       <r>   -70.7777     0.0000     1.0000 </r>
       <r>   -70.4310     0.0000     1.0000 </r>
       <r>   -70.0844     0.0000     1.0000 </r>
       <r>   -69.7378     0.0000     1.0000 </r>
       <r>   -69.3911     0.0000     1.0000 </r>
       <r>   -69.0445     0.0000     1.0000 </r>
       <r>   -68.6979     0.0000     1.0000 </r>
       <r>   -68.3512     0.0000     1.0000 </r>
       <r>   -68.0046     0.0000     1.0000 </r>
       <r>   -67.6580     0.0000     1.0000 </r>
       <r>   -67.3114     0.0000     1.0000 </r>
       <r>   -66.9647     0.0000     1.0000 </r>
       <r>   -66.6181     0.0000     1.0000 </r>
       <r>   -66.2715     0.0000     1.0000 </r>
       <r>   -65.9248     0.0000     1.0000 </r>
       <r>   -65.5782     0.0000     1.0000 </r>
       <r>   -65.2316     0.0000     1.0000 </r>
       <r>   -64.8849     0.0000     1.0000 </r>
       <r>   -64.5383     0.0000     1.0000 </r>
       <r>   -64.1917     0.0000     1.0000 </r>
       <r>   -63.8451     0.0000     1.0000 </r>
       <r>   -63.4984     0.0000     1.0000 </r>
       <r>   -63.1518     0.0000     1.0000 </r>
       <r>   -62.8052     0.0000     1.0000 </r>
       <r>   -62.4585     0.0000     1.0000 </r>
       <r>   -62.1119     0.0000     1.0000 </r>
       <r>   -61.7653     0.0000     1.0000 </r>
       <r>   -61.4187     0.0000     1.0000 </r>
       <r>   -61.0720     0.0000     1.0000 </r>
       <r>   -60.7254     0.0000     1.0000 </r>
       <r>   -60.3788     0.0000     1.0000 </r>
       <r>   -60.0321     0.0000     1.0000 </r>
       <r>   -59.6855     0.0000     1.0000 </r>
       <r>   -59.3389     0.0000     1.0000 </r>
       <r>   -58.9922     0.0000     1.0000 </r>
       <r>   -58.6456     0.0000     1.0000 </r>
       <r>   -58.2990     0.0000     1.0000 </r>
       <r>   -57.9524     0.0000     1.0000 </r>
       <r>   -57.6057     0.0000     1.0000 </r>
       <r>   -57.2591     0.0000     1.0000 </r>
       <r>   -56.9125     0.0000     1.0000 </r>
       <r>   -56.5658     0.0000     1.0000 </r>
       <r>   -56.2192     0.0000     1.0000 </r>
       <r>   -55.8726     0.0000     1.0000 </r>
       <r>   -55.5259     0.0000     1.0000 </r>
       <r>   -55.1793     0.0000     1.0000 </r>
       <r>   -54.8327     0.0000     1.0000 </r>
       <r>   -54.4861     0.0000     1.0000 </r>
       <r>   -54.1394     0.0000     1.0000 </r>
       <r>   -53.7928     0.0000     1.0000 </r>
       <r>   -53.4462     0.0000     1.0000 </r>
       <r>   -53.0995     0.0000     1.0000 </r>
       <r>   -52.7529     0.0000     1.0000 </r>
       <r>   -52.4063     0.0000     1.0000 </r>
       <r>   -52.0596     0.0000     1.0000 </r>
       <r>   -51.7130     0.0000     1.0000 </r>
       <r>   -51.3664     0.0000     1.0000 </r>
       <r>   -51.0198     0.0000     1.0000 </r>
       <r>   -50.6731     0.0000     1.0000 </r>
       <r>   -50.3265     0.0000     1.0000 </r>
       <r>   -49.9799     0.0000     1.0000 </r>
       <r>   -49.6332     0.0000     1.0000 </r>
       <r>   -49.2866     0.0000     1.0000 </r>
       <r>   -48.9400     0.0000     1.0000 </r>
       <r>   -48.5933     0.0000     1.0000 </r>
       <r>   -48.2467     0.0000     1.0000 </r>
       <r>   -47.9001     0.0000     1.0000 </r>
       <r>   -47.5535     0.0000     1.0000 </r>
       <r>   -47.2068     0.0000     1.0000 </r>
       <r>   -46.8602     0.0000     1.0000 </r>
       <r>   -46.5136     0.0000     1.0000 </r>
       <r>   -46.1669     0.0000     1.0000 </r>
       <r>   -45.8203     0.0000     1.0000 </r>
       <r>   -45.4737     0.0000     1.0000 </r>
       <r>   -45.1270     0.0000     1.0000 </r>
       <r>   -44.7804     0.0000     1.0000 </r>
       <r>   -44.4338     0.0000     1.0000 </r>
       <r>   -44.0872     0.0000     1.0000 </r>
       <r>   -43.7405     0.0000     1.0000 </r>
       <r>   -43.3939     0.0000     1.0000 </r>
       <r>   -43.0473     0.0000     1.0000 </r>
       <r>   -42.7006     0.0000     1.0000 </r>
       <r>   -42.3540     0.0000     1.0000 </r>
       <r>   -42.0074     0.0000     1.0000 </r>
       <r>   -41.6607     0.0000     1.0000 </r>
       <r>   -41.3141     0.0000     1.0000 </r>
       <r>   -40.9675     0.0000     1.0000 </r>
       <r>   -40.6209     0.0000     1.0000 </r>
       <r>   -40.2742     0.0000     1.0000 </r>
       <r>   -39.9276     0.0000     1.0000 </r>
       <r>   -39.5810     0.0000     1.0000 </r>
       <r>   -39.2343     0.0000     1.0000 </r>
       <r>   -38.8877     0.9333     1.3235 </r>
       <r>   -38.5411     7.7204     3.9996 </r>
       <r>   -38.1944     0.0011     4.0000 </r>
       <r>   -37.8478     0.0000     4.0000 </r>
       <r>   -37.5012     0.0000     4.0000 </r>
       <r>   -37.1546     0.0000     4.0000 </r>
       <r>   -36.8079     0.0000     4.0000 </r>
       <r>   -36.4613     0.0000     4.0000 </r>
       <r>   -36.1147     0.0000     4.0000 </r>
       <r>   -35.7680     0.0000     4.0000 </r>
       <r>   -35.4214     0.0000     4.0000 </r>
       <r>   -35.0748     0.0000     4.0000 </r>
       <r>   -34.7281     0.0000     4.0000 </r>
       <r>   -34.3815     0.0000     4.0000 </r>
       <r>   -34.0349     0.0000     4.0000 </r>
       <r>   -33.6883     0.0000     4.0000 </r>
       <r>   -33.3416     0.0000     4.0000 </r>
       <r>   -32.9950     0.0000     4.0000 </r>
       <r>   -32.6484     0.0000     4.0000 </r>
       <r>   -32.3017     0.0000     4.0000 </r>
       <r>   -31.9551     0.0000     4.0000 </r>
       <r>   -31.6085     0.0000     4.0000 </r>
       <r>   -31.2618     0.0000     4.0000 </r>
       <r>   -30.9152     0.0000     4.0000 </r>
       <r>   -30.5686     0.0000     4.0000 </r>
       <r>   -30.2220     0.0000     4.0000 </r>
       <r>   -29.8753     0.0000     4.0000 </r>
       <r>   -29.5287     0.0000     4.0000 </r>
       <r>   -29.1821     0.0000     4.0000 </r>
       <r>   -28.8354     0.0000     4.0000 </r>
       <r>   -28.4888     0.0000     4.0000 </r>
       <r>   -28.1422     0.0000     4.0000 </r>
       <r>   -27.7955     0.0000     4.0000 </r>
       <r>   -27.4489     0.0000     4.0000 </r>
       <r>   -27.1023     0.0000     4.0000 </r>
       <r>   -26.7557     0.0000     4.0000 </r>
       <r>   -26.4090     0.0000     4.0000 </r>
       <r>   -26.0624     0.0000     4.0000 </r>
       <r>   -25.7158     0.0000     4.0000 </r>
       <r>   -25.3691     0.0000     4.0000 </r>
       <r>   -25.0225     0.0000     4.0000 </r>
       <r>   -24.6759     0.0000     4.0000 </r>
       <r>   -24.3292     0.0000     4.0000 </r>
       <r>   -23.9826     0.0000     4.0000 </r>
       <r>   -23.6360     0.0000     4.0000 </r>
       <r>   -23.2894     0.0000     4.0000 </r>
       <r>   -22.9427     0.0000     4.0000 </r>
       <r>   -22.5961     0.0000     4.0000 </r>
       <r>   -22.2495     0.0000     4.0000 </r>
       <r>   -21.9028     0.0000     4.0000 </r>
       <r>   -21.5562     0.0000     4.0000 </r>
       <r>   -21.2096     0.0000     4.0000 </r>
       <r>   -20.8629     0.0000     4.0000 </r>
       <r>   -20.5163     0.0000     4.0000 </r>
       <r>   -20.1697     0.0000     4.0000 </r>
       <r>   -19.8231     0.0000     4.0000 </r>
       <r>   -19.4764     0.0000     4.0000 </r>
       <r>   -19.1298     0.0000     4.0000 </r>
       <r>   -18.7832     0.0000     4.0000 </r>
       <r>   -18.4365     0.0000     4.0000 </r>
       <r>   -18.0899     0.0000     4.0000 </r>
       <r>   -17.7433     0.0000     4.0000 </r>
       <r>   -17.3967     0.0000     4.0000 </r>
       <r>   -17.0500     0.0000     4.0000 </r>
       <r>   -16.7034     0.0000     4.0000 </r>
       <r>   -16.3568     0.0000     4.0000 </r>
       <r>   -16.0101     0.0000     4.0000 </r>
       <r>   -15.6635     0.0000     4.0000 </r>
       <r>   -15.3169     0.0000     4.0000 </r>
       <r>   -14.9702     0.0000     4.0000 </r>
       <r>   -14.6236     0.0000     4.0000 </r>
       <r>   -14.2770     0.0000     4.0000 </r>
       <r>   -13.9304     0.0000     4.0000 </r>
       <r>   -13.5837     0.0000     4.0000 </r>
       <r>   -13.2371     0.0000     4.0000 </r>
       <r>   -12.8905     0.0000     4.0000 </r>
       <r>   -12.5438     0.0000     4.0000 </r>
       <r>   -12.1972     0.0000     4.0000 </r>
       <r>   -11.8506     0.0000     4.0000 </r>
       <r>   -11.5039     0.0000     4.0000 </r>
       <r>   -11.1573     0.0000     4.0000 </r>
       <r>   -10.8107     0.0000     4.0000 </r>
       <r>   -10.4641     0.0000     4.0000 </r>
       <r>   -10.1174     0.0000     4.0000 </r>
       <r>    -9.7708     0.0000     4.0000 </r>
       <r>    -9.4242     0.0000     4.0000 </r>
       <r>    -9.0775     0.0000     4.0000 </r>
       <r>    -8.7309     0.0000     4.0000 </r>
       <r>    -8.3843     0.0000     4.0000 </r>
       <r>    -8.0376     0.0000     4.0000 </r>
       <r>    -7.6910     0.0000     4.0000 </r>
       <r>    -7.3444     0.0000     4.0000 </r>
       <r>    -6.9978     0.0000     4.0000 </r>
       <r>    -6.6511     0.0000     4.0000 </r>
       <r>    -6.3045     0.0000     4.0000 </r>
       <r>    -5.9579     0.0000     4.0000 </r>
       <r>    -5.6112     0.0000     4.0000 </r>
       <r>    -5.2646     0.0000     4.0000 </r>
       <r>    -4.9180     0.0000     4.0000 </r>
       <r>    -4.5713     0.0000     4.0000 </r>
       <r>    -4.2247     0.0000     4.0000 </r>
       <r>    -3.8781     1.4562     4.5047 </r>
       <r>    -3.5315     1.4288     5.0000 </r>
       <r>    -3.1848     0.0000     5.0000 </r>
       <r>    -2.8382     0.0000     5.0000 </r>
       <r>    -2.4916     0.0000     5.0000 </r>
       <r>    -2.1449     0.0000     5.0000 </r>
       <r>    -1.7983     0.0000     5.0000 </r>
       <r>    -1.4517     0.0000     5.0000 </r>
       <r>    -1.1050     0.0000     5.0000 </r>
       <r>    -0.7584     0.0000     5.0000 </r>
       <r>    -0.4118     0.0000     5.0000 </r>
       <r>    -0.0652     0.0000     5.0000 </r>
       <r>     0.2815     0.0000     5.0000 </r>
       <r>     0.6281     0.0000     5.0000 </r>
       <r>     0.9747     0.0000     5.0000 </r>
       <r>     1.3214     0.0000     5.0000 </r>
       <r>     1.6680     0.0000     5.0000 </r>
       <r>     2.0146     0.0000     5.0000 </r>
       <r>     2.3613     0.0000     5.0000 </r>
       <r>     2.7079     0.0000     5.0000 </r>
       <r>     3.0545     0.0000     5.0000 </r>
       <r>     3.4011     0.0000     5.0000 </r>
       <r>     3.7478     0.0000     5.0000 </r>
       <r>     4.0944     0.0000     5.0000 </r>
       <r>     4.4410     0.0000     5.0000 </r>
       <r>     4.7877     0.0000     5.0000 </r>
       <r>     5.1343     0.0000     5.0000 </r>
       <r>     5.4809     0.0000     5.0000 </r>
       <r>     5.8276     0.0000     5.0000 </r>
       <r>     6.1742     0.0000     5.0000 </r>
       <r>     6.5208     0.0000     5.0000 </r>
       <r>     6.8674     0.0000     5.0000 </r>
       <r>     7.2141     0.0000     5.0000 </r>
       <r>     7.5607     0.0000     5.0000 </r>
       <r>     7.9073     0.0000     5.0000 </r>
       <r>     8.2540     0.0000     5.0000 </r>
       <r>     8.6006     0.0000     5.0000 </r>
       <r>     8.9472     0.0000     5.0000 </r>
       <r>     9.2939     0.0000     5.0000 </r>
       <r>     9.6405     0.0000     5.0000 </r>
       <r>     9.9871     0.0000     5.0000 </r>
       <r>    10.3337     0.0000     5.0000 </r>
       <r>    10.6804     0.0000     5.0000 </r>
       <r>    11.0270     0.0000     5.0000 </r>
       <r>    11.3736     0.0000     5.0000 </r>
       <r>    11.7203     0.0000     5.0000 </r>
       <r>    12.0669     0.0000     5.0000 </r>
       <r>    12.4135     0.0000     5.0000 </r>
       <r>    12.7602     0.0000     5.0000 </r>
       <r>    13.1068     0.0000     5.0000 </r>
       <r>    13.4534     0.0000     5.0000 </r>
       <r>    13.8000     0.0000     5.0000 </r>
       <r>    14.1467     0.0000     5.0000 </r>
       <r>    14.4933     0.0000     5.0000 </r>
       <r>    14.8399     0.0000     5.0000 </r>
       <r>    15.1866     0.0000     5.0000 </r>
       <r>    15.5332     0.0000     5.0000 </r>
       <r>    15.8798     0.0000     5.0000 </r>
       <r>    16.2265     0.0000     5.0000 </r>
       <r>    16.5731     0.0000     5.0000 </r>
       <r>    16.9197     0.0000     5.0000 </r>
       <r>    17.2663     0.0000     5.0000 </r>
       <r>    17.6130     0.0000     5.0000 </r>
       <r>    17.9596     0.0000     5.0000 </r>
       <r>    18.3062     0.0000     5.0000 </r>
       <r>    18.6529     0.3705     5.1284 </r>
       <r>    18.9995     8.2779     7.9978 </r>
       <r>    19.3461     0.0063     8.0000 </r>
       <r>    19.6928     0.0000     8.0000 </r>
       <r>    20.0394     0.0000     8.0000 </r>
       <r>    20.3860     0.0000     8.0000 </r>
       <r>    20.7326     0.0000     8.0000 </r>
       <r>    21.0793     0.0000     8.0000 </r>
       <r>    21.4259     0.1824     8.0632 </r>
       <r>    21.7725     2.7015     8.9996 </r>
       <r>    22.1192     0.0011     9.0000 </r>
       <r>    22.4658     0.1079     9.0374 </r>
       <r>    22.8124     2.7744     9.9991 </r>
       <r>    23.1591     0.0026    10.0000 </r>
       <r>    23.5057     0.0000    10.0000 </r>
       <r>    23.8523     0.0000    10.0000 </r>
       <r>    24.1989     0.0000    10.0000 </r>
       <r>    24.5456     0.0000    10.0000 </r>
       <r>    24.8922     0.0000    10.0000 </r>
       <r>    25.2388     0.0000    10.0000 </r>
       <r>    25.5855     0.0000    10.0000 </r>
       <r>    25.9321     0.0000    10.0000 </r>
       <r>    26.2787     0.0000    10.0000 </r>
       <r>    26.6253     0.0000    10.0000 </r>
       <r>    26.9720     0.0000    10.0000 </r>
       <r>    27.3186     0.0000    10.0000 </r>
      </set>
     </set>
    </array>
   </total>
  </dos>
 </calculation>
 <structure name="finalpos" >
  <crystal>
   <varray name="basis" >
    <v>       0.00000000       2.02469993       2.02469993 </v>
    <v>       2.02469993       0.00000000       2.02469993 </v>
    <v>       2.02469993       2.02469993       0.00000000 </v>
   </varray>
   <i name="volume">     16.60014941 </i>
   <varray name="rec_basis" >
    <v>      -0.24695017       0.24695017       0.24695017 </v>
    <v>       0.24695017      -0.24695017       0.24695017 </v>
    <v>       0.24695017       0.24695017      -0.24695017 </v>
   </varray>
  </crystal>
  <varray name="positions" >
   <v>       0.00000000       0.00000000       0.00000000 </v>
  </varray>
 </structure>
</modeling>
