 vasp.5.2.12 11Nov11 complex                                                    
  
 executed on             LinuxIFC date 2012.10.07  19:10:12
 running on    1 nodes
 distr:  one band on    1 nodes,    1 groups


--------------------------------------------------------------------------------------------------------


 INCAR:
 POTCAR:    PAW_PBE Mg_sv 12Apr2007               
 POTCAR:    PAW_PBE Mg_sv 12Apr2007               
   VRHFIN =Mg: p6s2                                                             
   LEXCH  = PE                                                                  
   EATOM  =  1728.4457 eV,  127.0372 Ry                                         
                                                                                
   TITEL  = PAW_PBE Mg_sv 12Apr2007                                             
   LULTRA =        F    use ultrasoft PP ?                                      
   IUNSCR =        0    unscreen: 0-lin 1-nonlin 2-no                           
   RPACOR =    0.000    partial core radius                                     
   POMASS =   24.305; ZVAL   =   10.000    mass and valenz                      
   RCORE  =    1.700    outmost cutoff radius                                   
   RWIGS  =    1.800; RWIGS  =    0.953    wigner-seitz radius (au A)           
   ENMAX  =  495.223; ENMIN  =  371.417 eV                                      
   RCLOC  =    1.506    cutoff for local pot                                    
   LCOR   =        T    correct aug charges                                     
   LPAW   =        T    paw PP                                                  
   EAUG   =  980.156                                                            
   RMAX   =    1.743    core radius for proj-oper                               
   RAUG   =    1.300    factor for augmentation sphere                          
   RDEP   =    1.781    radius for radial grids                                 
   RDEPT  =    1.300    core radius for aug-charge                              
                                                                                
   Atomic configuration                                                         
    5 entries                                                                   
     n  l   j            E        occ.                                          
     1  0  0.50     -1259.6230   2.0000                                         
     2  0  0.50       -79.8442   2.0000                                         
     3  0  0.50        -4.7055   2.0000                                         
     2  1  1.50       -46.6121   6.0000                                         
     3  2  1.50        -1.3606   0.0000                                         
   Description                                                                  
     l       E           TYP  RCUT    TYP  RCUT                                 
     0    -79.8442259     23  1.200                                             
     0     -4.7054661     23  1.700                                             
     1    -46.6121068     23  1.500                                             
     1      6.8029130     23  1.500                                             
     2     -1.3605826     23  1.700                                             
  local pseudopotential read in
  atomic valenz-charges read in
  non local Contribution for L=           0  read in
    real space projection operators read in
  non local Contribution for L=           0  read in
    real space projection operators read in
  non local Contribution for L=           1  read in
    real space projection operators read in
  non local Contribution for L=           1  read in
    real space projection operators read in
  non local Contribution for L=           2  read in
    real space projection operators read in
    PAW grid and wavefunctions read in
 
   number of l-projection  operators is LMAX  =           5
   number of lm-projection operators is LMMAX =          13
 

 ----------------------------------------------------------------------------- 
|                                                                             |
|  ADVICE TO THIS USER RUNNING 'VASP/VAMP'   (HEAR YOUR MASTER'S VOICE ...):  |
|                                                                             |
|      You have a (more or less) 'small supercell' and for smaller cells      |
|      it is recommended  to use the reciprocal-space projection scheme!      |
|      The real space optimization is not  efficient for small cells and it   |
|      is also less accurate ...                                              |
|      Therefore set LREAL=.FALSE. in the  INCAR file                         |
|                                                                             |
 ----------------------------------------------------------------------------- 

 Optimization of the real space projectors (new method)

 maximal supplied QI-value         = 22.11
 optimisation between [QCUT,QGAM] = [ 11.28, 28.52] = [ 35.61,227.80] Ry 
 Optimized for a Real-space Cutoff    1.02 Angstroem

   l    n(q)    QCUT    max X(q) W(low)/X(q) W(high)/X(q)  e(spline) 
   0      9    11.276     8.730    0.22E-04    0.28E-04    0.18E-07
   0      9    11.276     8.910    0.31E-04    0.40E-04    0.29E-07
   1      8    11.276     2.513    0.12E-04    0.20E-04    0.44E-07
   1      8    11.276     3.341    0.12E-04    0.86E-04    0.15E-06
   2      8    11.276     3.683    0.15E-03    0.75E-04    0.42E-07
  PAW_PBE Mg_sv 12Apr2007               :
 energy of atom  1       EATOM=-1728.4457
 kinetic energy error for atom=    0.1108 (will be added to EATOM!!)
 
 
 POSCAR: Mg                                      
  positions in direct lattice
  velocities in cartesian coordinates
 exchange correlation table for  LEXCH =        8
   RHO(1)=    0.500       N(1)  =     2000
   RHO(2)=  100.500       N(2)  =     4000
 


--------------------------------------------------------------------------------------------------------


 ion  position               nearest neighbor table
   1  0.333  0.667  0.250-
   2  0.667  0.333  0.750-
 
  LATTYP: Found a hexagonal cell.
 ALAT       =     3.1010365400
 C/A-ratio  =     1.6218306317
  
  Lattice vectors:
  
 A1 = (   3.1010365401,   0.0000000000,   0.0000000000)
 A2 = (  -1.5505182700,   2.6855764217,   0.0000000000)
 A3 = (   0.0000000000,   0.0000000000,   5.0293560506)
 Subroutine PRICEL returns:
 Original cell was already a primitive cell.
 

Analysis of symmetry for initial positions (statically):

 Routine SETGRP: Setting up the symmetry group for a 
 hexagonal supercell.


 Subroutine GETGRP returns: Found 24 space group operations
 (whereof 12 operations were pure point group operations)
 out of a pool of 24 trial point group operations.


The static configuration has the point symmetry D_3d.
 The point group associated with its full space group is D_6h.

Analysis of symmetry for dynamics (positions and initial velocities):

 Subroutine DYNSYM returns: Found 24 space group operations
 (whereof 12 operations were pure point group operations)
 out of a pool of 24 trial space group operations
 (whereof 12 operations were pure point group operations)
 and found also     1 'primitive' translations


The dynamic configuration has the point symmetry D_3d.
 The point group associated with its full space group is D_6h.

Analysis of magnetic symmetry:

 Subroutine MAGSYM returns: Found 24 space group operations
 (whereof 12 operations were pure point group operations)
 out of a pool of 24 trial space group operations
 (whereof 12 operations were pure point group operations)
 and found also     1 'primitive' translations


The magnetic configuration has the point symmetry D_3d.
 The point group associated with its full space group is D_6h.
 
 
 KPOINTS: Automatic mesh                          

Automatic generation of k-mesh.
 
 Subroutine IBZKPT returns following result:
 ===========================================
 
 Found   1734 irreducible k-points:
 
 Following reciprocal coordinates:
            Coordinates               Weight
  0.000000  0.000000  0.000000      1.000000
  0.031250  0.000000  0.000000      6.000000
  0.062500  0.000000  0.000000      6.000000
  0.093750  0.000000  0.000000      6.000000
  0.125000  0.000000  0.000000      6.000000
  0.156250  0.000000  0.000000      6.000000
  0.187500  0.000000  0.000000      6.000000
  0.218750  0.000000  0.000000      6.000000
  0.250000  0.000000  0.000000      6.000000
  0.281250  0.000000  0.000000      6.000000
  0.312500  0.000000  0.000000      6.000000
  0.343750  0.000000  0.000000      6.000000
  0.375000  0.000000  0.000000      6.000000
  0.406250  0.000000  0.000000      6.000000
  0.437500  0.000000  0.000000      6.000000
  0.468750  0.000000  0.000000      6.000000
  0.500000  0.000000  0.000000      3.000000
  0.031250  0.031250  0.000000      6.000000
  0.062500  0.031250  0.000000     12.000000
  0.093750  0.031250  0.000000     12.000000
  0.125000  0.031250  0.000000     12.000000
  0.156250  0.031250  0.000000     12.000000
  0.187500  0.031250  0.000000     12.000000
  0.218750  0.031250  0.000000     12.000000
  0.250000  0.031250  0.000000     12.000000
  0.281250  0.031250  0.000000     12.000000
  0.312500  0.031250  0.000000     12.000000
  0.343750  0.031250  0.000000     12.000000
  0.375000  0.031250  0.000000     12.000000
  0.406250  0.031250  0.000000     12.000000
  0.437500  0.031250  0.000000     12.000000
  0.468750  0.031250  0.000000     12.000000
  0.062500  0.062500  0.000000      6.000000
  0.093750  0.062500  0.000000     12.000000
  0.125000  0.062500  0.000000     12.000000
  0.156250  0.062500  0.000000     12.000000
  0.187500  0.062500  0.000000     12.000000
  0.218750  0.062500  0.000000     12.000000
  0.250000  0.062500  0.000000     12.000000
  0.281250  0.062500  0.000000     12.000000
  0.312500  0.062500  0.000000     12.000000
  0.343750  0.062500  0.000000     12.000000
  0.375000  0.062500  0.000000     12.000000
  0.406250  0.062500  0.000000     12.000000
  0.437500  0.062500  0.000000     12.000000
  0.468750  0.062500  0.000000      6.000000
  0.093750  0.093750  0.000000      6.000000
  0.125000  0.093750  0.000000     12.000000
  0.156250  0.093750  0.000000     12.000000
  0.187500  0.093750  0.000000     12.000000
  0.218750  0.093750  0.000000     12.000000
  0.250000  0.093750  0.000000     12.000000
  0.281250  0.093750  0.000000     12.000000
  0.312500  0.093750  0.000000     12.000000
  0.343750  0.093750  0.000000     12.000000
  0.375000  0.093750  0.000000     12.000000
  0.406250  0.093750  0.000000     12.000000
  0.437500  0.093750  0.000000     12.000000
  0.125000  0.125000  0.000000      6.000000
  0.156250  0.125000  0.000000     12.000000
  0.187500  0.125000  0.000000     12.000000
  0.218750  0.125000  0.000000     12.000000
  0.250000  0.125000  0.000000     12.000000
  0.281250  0.125000  0.000000     12.000000
  0.312500  0.125000  0.000000     12.000000
  0.343750  0.125000  0.000000     12.000000
  0.375000  0.125000  0.000000     12.000000
  0.406250  0.125000  0.000000     12.000000
  0.437500  0.125000  0.000000      6.000000
  0.156250  0.156250  0.000000      6.000000
  0.187500  0.156250  0.000000     12.000000
  0.218750  0.156250  0.000000     12.000000
  0.250000  0.156250  0.000000     12.000000
  0.281250  0.156250  0.000000     12.000000
  0.312500  0.156250  0.000000     12.000000
  0.343750  0.156250  0.000000     12.000000
  0.375000  0.156250  0.000000     12.000000
  0.406250  0.156250  0.000000     12.000000
  0.187500  0.187500  0.000000      6.000000
  0.218750  0.187500  0.000000     12.000000
  0.250000  0.187500  0.000000     12.000000
  0.281250  0.187500  0.000000     12.000000
  0.312500  0.187500  0.000000     12.000000
  0.343750  0.187500  0.000000     12.000000
  0.375000  0.187500  0.000000     12.000000
  0.406250  0.187500  0.000000      6.000000
  0.218750  0.218750  0.000000      6.000000
  0.250000  0.218750  0.000000     12.000000
  0.281250  0.218750  0.000000     12.000000
  0.312500  0.218750  0.000000     12.000000
  0.343750  0.218750  0.000000     12.000000
  0.375000  0.218750  0.000000     12.000000
  0.250000  0.250000  0.000000      6.000000
  0.281250  0.250000  0.000000     12.000000
  0.312500  0.250000  0.000000     12.000000
  0.343750  0.250000  0.000000     12.000000
  0.375000  0.250000  0.000000      6.000000
  0.281250  0.281250  0.000000      6.000000
  0.312500  0.281250  0.000000     12.000000
  0.343750  0.281250  0.000000     12.000000
  0.312500  0.312500  0.000000      6.000000
  0.343750  0.312500  0.000000      6.000000
  0.000000  0.000000  0.031250      2.000000
  0.031250  0.000000  0.031250     12.000000
  0.062500  0.000000  0.031250     12.000000
  0.093750  0.000000  0.031250     12.000000
  0.125000  0.000000  0.031250     12.000000
  0.156250  0.000000  0.031250     12.000000
  0.187500  0.000000  0.031250     12.000000
  0.218750  0.000000  0.031250     12.000000
  0.250000  0.000000  0.031250     12.000000
  0.281250  0.000000  0.031250     12.000000
  0.312500  0.000000  0.031250     12.000000
  0.343750  0.000000  0.031250     12.000000
  0.375000  0.000000  0.031250     12.000000
  0.406250  0.000000  0.031250     12.000000
  0.437500  0.000000  0.031250     12.000000
  0.468750  0.000000  0.031250     12.000000
  0.500000  0.000000  0.031250      6.000000
  0.031250  0.031250  0.031250     12.000000
  0.062500  0.031250  0.031250     24.000000
  0.093750  0.031250  0.031250     24.000000
  0.125000  0.031250  0.031250     24.000000
  0.156250  0.031250  0.031250     24.000000
  0.187500  0.031250  0.031250     24.000000
  0.218750  0.031250  0.031250     24.000000
  0.250000  0.031250  0.031250     24.000000
  0.281250  0.031250  0.031250     24.000000
  0.312500  0.031250  0.031250     24.000000
  0.343750  0.031250  0.031250     24.000000
  0.375000  0.031250  0.031250     24.000000
  0.406250  0.031250  0.031250     24.000000
  0.437500  0.031250  0.031250     24.000000
  0.468750  0.031250  0.031250     24.000000
  0.062500  0.062500  0.031250     12.000000
  0.093750  0.062500  0.031250     24.000000
  0.125000  0.062500  0.031250     24.000000
  0.156250  0.062500  0.031250     24.000000
  0.187500  0.062500  0.031250     24.000000
  0.218750  0.062500  0.031250     24.000000
  0.250000  0.062500  0.031250     24.000000
  0.281250  0.062500  0.031250     24.000000
  0.312500  0.062500  0.031250     24.000000
  0.343750  0.062500  0.031250     24.000000
  0.375000  0.062500  0.031250     24.000000
  0.406250  0.062500  0.031250     24.000000
  0.437500  0.062500  0.031250     24.000000
  0.468750  0.062500  0.031250     12.000000
  0.093750  0.093750  0.031250     12.000000
  0.125000  0.093750  0.031250     24.000000
  0.156250  0.093750  0.031250     24.000000
  0.187500  0.093750  0.031250     24.000000
  0.218750  0.093750  0.031250     24.000000
  0.250000  0.093750  0.031250     24.000000
  0.281250  0.093750  0.031250     24.000000
  0.312500  0.093750  0.031250     24.000000
  0.343750  0.093750  0.031250     24.000000
  0.375000  0.093750  0.031250     24.000000
  0.406250  0.093750  0.031250     24.000000
  0.437500  0.093750  0.031250     24.000000
  0.125000  0.125000  0.031250     12.000000
  0.156250  0.125000  0.031250     24.000000
  0.187500  0.125000  0.031250     24.000000
  0.218750  0.125000  0.031250     24.000000
  0.250000  0.125000  0.031250     24.000000
  0.281250  0.125000  0.031250     24.000000
  0.312500  0.125000  0.031250     24.000000
  0.343750  0.125000  0.031250     24.000000
  0.375000  0.125000  0.031250     24.000000
  0.406250  0.125000  0.031250     24.000000
  0.437500  0.125000  0.031250     12.000000
  0.156250  0.156250  0.031250     12.000000
  0.187500  0.156250  0.031250     24.000000
  0.218750  0.156250  0.031250     24.000000
  0.250000  0.156250  0.031250     24.000000
  0.281250  0.156250  0.031250     24.000000
  0.312500  0.156250  0.031250     24.000000
  0.343750  0.156250  0.031250     24.000000
  0.375000  0.156250  0.031250     24.000000
  0.406250  0.156250  0.031250     24.000000
  0.187500  0.187500  0.031250     12.000000
  0.218750  0.187500  0.031250     24.000000
  0.250000  0.187500  0.031250     24.000000
  0.281250  0.187500  0.031250     24.000000
  0.312500  0.187500  0.031250     24.000000
  0.343750  0.187500  0.031250     24.000000
  0.375000  0.187500  0.031250     24.000000
  0.406250  0.187500  0.031250     12.000000
  0.218750  0.218750  0.031250     12.000000
  0.250000  0.218750  0.031250     24.000000
  0.281250  0.218750  0.031250     24.000000
  0.312500  0.218750  0.031250     24.000000
  0.343750  0.218750  0.031250     24.000000
  0.375000  0.218750  0.031250     24.000000
  0.250000  0.250000  0.031250     12.000000
  0.281250  0.250000  0.031250     24.000000
  0.312500  0.250000  0.031250     24.000000
  0.343750  0.250000  0.031250     24.000000
  0.375000  0.250000  0.031250     12.000000
  0.281250  0.281250  0.031250     12.000000
  0.312500  0.281250  0.031250     24.000000
  0.343750  0.281250  0.031250     24.000000
  0.312500  0.312500  0.031250     12.000000
  0.343750  0.312500  0.031250     12.000000
  0.000000  0.000000  0.062500      2.000000
  0.031250  0.000000  0.062500     12.000000
  0.062500  0.000000  0.062500     12.000000
  0.093750  0.000000  0.062500     12.000000
  0.125000  0.000000  0.062500     12.000000
  0.156250  0.000000  0.062500     12.000000
  0.187500  0.000000  0.062500     12.000000
  0.218750  0.000000  0.062500     12.000000
  0.250000  0.000000  0.062500     12.000000
  0.281250  0.000000  0.062500     12.000000
  0.312500  0.000000  0.062500     12.000000
  0.343750  0.000000  0.062500     12.000000
  0.375000  0.000000  0.062500     12.000000
  0.406250  0.000000  0.062500     12.000000
  0.437500  0.000000  0.062500     12.000000
  0.468750  0.000000  0.062500     12.000000
  0.500000  0.000000  0.062500      6.000000
  0.031250  0.031250  0.062500     12.000000
  0.062500  0.031250  0.062500     24.000000
  0.093750  0.031250  0.062500     24.000000
  0.125000  0.031250  0.062500     24.000000
  0.156250  0.031250  0.062500     24.000000
  0.187500  0.031250  0.062500     24.000000
  0.218750  0.031250  0.062500     24.000000
  0.250000  0.031250  0.062500     24.000000
  0.281250  0.031250  0.062500     24.000000
  0.312500  0.031250  0.062500     24.000000
  0.343750  0.031250  0.062500     24.000000
  0.375000  0.031250  0.062500     24.000000
  0.406250  0.031250  0.062500     24.000000
  0.437500  0.031250  0.062500     24.000000
  0.468750  0.031250  0.062500     24.000000
  0.062500  0.062500  0.062500     12.000000
  0.093750  0.062500  0.062500     24.000000
  0.125000  0.062500  0.062500     24.000000
  0.156250  0.062500  0.062500     24.000000
  0.187500  0.062500  0.062500     24.000000
  0.218750  0.062500  0.062500     24.000000
  0.250000  0.062500  0.062500     24.000000
  0.281250  0.062500  0.062500     24.000000
  0.312500  0.062500  0.062500     24.000000
  0.343750  0.062500  0.062500     24.000000
  0.375000  0.062500  0.062500     24.000000
  0.406250  0.062500  0.062500     24.000000
  0.437500  0.062500  0.062500     24.000000
  0.468750  0.062500  0.062500     12.000000
  0.093750  0.093750  0.062500     12.000000
  0.125000  0.093750  0.062500     24.000000
  0.156250  0.093750  0.062500     24.000000
  0.187500  0.093750  0.062500     24.000000
  0.218750  0.093750  0.062500     24.000000
  0.250000  0.093750  0.062500     24.000000
  0.281250  0.093750  0.062500     24.000000
  0.312500  0.093750  0.062500     24.000000
  0.343750  0.093750  0.062500     24.000000
  0.375000  0.093750  0.062500     24.000000
  0.406250  0.093750  0.062500     24.000000
  0.437500  0.093750  0.062500     24.000000
  0.125000  0.125000  0.062500     12.000000
  0.156250  0.125000  0.062500     24.000000
  0.187500  0.125000  0.062500     24.000000
  0.218750  0.125000  0.062500     24.000000
  0.250000  0.125000  0.062500     24.000000
  0.281250  0.125000  0.062500     24.000000
  0.312500  0.125000  0.062500     24.000000
  0.343750  0.125000  0.062500     24.000000
  0.375000  0.125000  0.062500     24.000000
  0.406250  0.125000  0.062500     24.000000
  0.437500  0.125000  0.062500     12.000000
  0.156250  0.156250  0.062500     12.000000
  0.187500  0.156250  0.062500     24.000000
  0.218750  0.156250  0.062500     24.000000
  0.250000  0.156250  0.062500     24.000000
  0.281250  0.156250  0.062500     24.000000
  0.312500  0.156250  0.062500     24.000000
  0.343750  0.156250  0.062500     24.000000
  0.375000  0.156250  0.062500     24.000000
  0.406250  0.156250  0.062500     24.000000
  0.187500  0.187500  0.062500     12.000000
  0.218750  0.187500  0.062500     24.000000
  0.250000  0.187500  0.062500     24.000000
  0.281250  0.187500  0.062500     24.000000
  0.312500  0.187500  0.062500     24.000000
  0.343750  0.187500  0.062500     24.000000
  0.375000  0.187500  0.062500     24.000000
  0.406250  0.187500  0.062500     12.000000
  0.218750  0.218750  0.062500     12.000000
  0.250000  0.218750  0.062500     24.000000
  0.281250  0.218750  0.062500     24.000000
  0.312500  0.218750  0.062500     24.000000
  0.343750  0.218750  0.062500     24.000000
  0.375000  0.218750  0.062500     24.000000
  0.250000  0.250000  0.062500     12.000000
  0.281250  0.250000  0.062500     24.000000
  0.312500  0.250000  0.062500     24.000000
  0.343750  0.250000  0.062500     24.000000
  0.375000  0.250000  0.062500     12.000000
  0.281250  0.281250  0.062500     12.000000
  0.312500  0.281250  0.062500     24.000000
  0.343750  0.281250  0.062500     24.000000
  0.312500  0.312500  0.062500     12.000000
  0.343750  0.312500  0.062500     12.000000
  0.000000  0.000000  0.093750      2.000000
  0.031250  0.000000  0.093750     12.000000
  0.062500  0.000000  0.093750     12.000000
  0.093750  0.000000  0.093750     12.000000
  0.125000  0.000000  0.093750     12.000000
  0.156250  0.000000  0.093750     12.000000
  0.187500  0.000000  0.093750     12.000000
  0.218750  0.000000  0.093750     12.000000
  0.250000  0.000000  0.093750     12.000000
  0.281250  0.000000  0.093750     12.000000
  0.312500  0.000000  0.093750     12.000000
  0.343750  0.000000  0.093750     12.000000
  0.375000  0.000000  0.093750     12.000000
  0.406250  0.000000  0.093750     12.000000
  0.437500  0.000000  0.093750     12.000000
  0.468750  0.000000  0.093750     12.000000
  0.500000  0.000000  0.093750      6.000000
  0.031250  0.031250  0.093750     12.000000
  0.062500  0.031250  0.093750     24.000000
  0.093750  0.031250  0.093750     24.000000
  0.125000  0.031250  0.093750     24.000000
  0.156250  0.031250  0.093750     24.000000
  0.187500  0.031250  0.093750     24.000000
  0.218750  0.031250  0.093750     24.000000
  0.250000  0.031250  0.093750     24.000000
  0.281250  0.031250  0.093750     24.000000
  0.312500  0.031250  0.093750     24.000000
  0.343750  0.031250  0.093750     24.000000
  0.375000  0.031250  0.093750     24.000000
  0.406250  0.031250  0.093750     24.000000
  0.437500  0.031250  0.093750     24.000000
  0.468750  0.031250  0.093750     24.000000
  0.062500  0.062500  0.093750     12.000000
  0.093750  0.062500  0.093750     24.000000
  0.125000  0.062500  0.093750     24.000000
  0.156250  0.062500  0.093750     24.000000
  0.187500  0.062500  0.093750     24.000000
  0.218750  0.062500  0.093750     24.000000
  0.250000  0.062500  0.093750     24.000000
  0.281250  0.062500  0.093750     24.000000
  0.312500  0.062500  0.093750     24.000000
  0.343750  0.062500  0.093750     24.000000
  0.375000  0.062500  0.093750     24.000000
  0.406250  0.062500  0.093750     24.000000
  0.437500  0.062500  0.093750     24.000000
  0.468750  0.062500  0.093750     12.000000
  0.093750  0.093750  0.093750     12.000000
  0.125000  0.093750  0.093750     24.000000
  0.156250  0.093750  0.093750     24.000000
  0.187500  0.093750  0.093750     24.000000
  0.218750  0.093750  0.093750     24.000000
  0.250000  0.093750  0.093750     24.000000
  0.281250  0.093750  0.093750     24.000000
  0.312500  0.093750  0.093750     24.000000
  0.343750  0.093750  0.093750     24.000000
  0.375000  0.093750  0.093750     24.000000
  0.406250  0.093750  0.093750     24.000000
  0.437500  0.093750  0.093750     24.000000
  0.125000  0.125000  0.093750     12.000000
  0.156250  0.125000  0.093750     24.000000
  0.187500  0.125000  0.093750     24.000000
  0.218750  0.125000  0.093750     24.000000
  0.250000  0.125000  0.093750     24.000000
  0.281250  0.125000  0.093750     24.000000
  0.312500  0.125000  0.093750     24.000000
  0.343750  0.125000  0.093750     24.000000
  0.375000  0.125000  0.093750     24.000000
  0.406250  0.125000  0.093750     24.000000
  0.437500  0.125000  0.093750     12.000000
  0.156250  0.156250  0.093750     12.000000
  0.187500  0.156250  0.093750     24.000000
  0.218750  0.156250  0.093750     24.000000
  0.250000  0.156250  0.093750     24.000000
  0.281250  0.156250  0.093750     24.000000
  0.312500  0.156250  0.093750     24.000000
  0.343750  0.156250  0.093750     24.000000
  0.375000  0.156250  0.093750     24.000000
  0.406250  0.156250  0.093750     24.000000
  0.187500  0.187500  0.093750     12.000000
  0.218750  0.187500  0.093750     24.000000
  0.250000  0.187500  0.093750     24.000000
  0.281250  0.187500  0.093750     24.000000
  0.312500  0.187500  0.093750     24.000000
  0.343750  0.187500  0.093750     24.000000
  0.375000  0.187500  0.093750     24.000000
  0.406250  0.187500  0.093750     12.000000
  0.218750  0.218750  0.093750     12.000000
  0.250000  0.218750  0.093750     24.000000
  0.281250  0.218750  0.093750     24.000000
  0.312500  0.218750  0.093750     24.000000
  0.343750  0.218750  0.093750     24.000000
  0.375000  0.218750  0.093750     24.000000
  0.250000  0.250000  0.093750     12.000000
  0.281250  0.250000  0.093750     24.000000
  0.312500  0.250000  0.093750     24.000000
  0.343750  0.250000  0.093750     24.000000
  0.375000  0.250000  0.093750     12.000000
  0.281250  0.281250  0.093750     12.000000
  0.312500  0.281250  0.093750     24.000000
  0.343750  0.281250  0.093750     24.000000
  0.312500  0.312500  0.093750     12.000000
  0.343750  0.312500  0.093750     12.000000
  0.000000  0.000000  0.125000      2.000000
  0.031250  0.000000  0.125000     12.000000
  0.062500  0.000000  0.125000     12.000000
  0.093750  0.000000  0.125000     12.000000
  0.125000  0.000000  0.125000     12.000000
  0.156250  0.000000  0.125000     12.000000
  0.187500  0.000000  0.125000     12.000000
  0.218750  0.000000  0.125000     12.000000
  0.250000  0.000000  0.125000     12.000000
  0.281250  0.000000  0.125000     12.000000
  0.312500  0.000000  0.125000     12.000000
  0.343750  0.000000  0.125000     12.000000
  0.375000  0.000000  0.125000     12.000000
  0.406250  0.000000  0.125000     12.000000
  0.437500  0.000000  0.125000     12.000000
  0.468750  0.000000  0.125000     12.000000
  0.500000  0.000000  0.125000      6.000000
  0.031250  0.031250  0.125000     12.000000
  0.062500  0.031250  0.125000     24.000000
  0.093750  0.031250  0.125000     24.000000
  0.125000  0.031250  0.125000     24.000000
  0.156250  0.031250  0.125000     24.000000
  0.187500  0.031250  0.125000     24.000000
  0.218750  0.031250  0.125000     24.000000
  0.250000  0.031250  0.125000     24.000000
  0.281250  0.031250  0.125000     24.000000
  0.312500  0.031250  0.125000     24.000000
  0.343750  0.031250  0.125000     24.000000
  0.375000  0.031250  0.125000     24.000000
  0.406250  0.031250  0.125000     24.000000
  0.437500  0.031250  0.125000     24.000000
  0.468750  0.031250  0.125000     24.000000
  0.062500  0.062500  0.125000     12.000000
  0.093750  0.062500  0.125000     24.000000
  0.125000  0.062500  0.125000     24.000000
  0.156250  0.062500  0.125000     24.000000
  0.187500  0.062500  0.125000     24.000000
  0.218750  0.062500  0.125000     24.000000
  0.250000  0.062500  0.125000     24.000000
  0.281250  0.062500  0.125000     24.000000
  0.312500  0.062500  0.125000     24.000000
  0.343750  0.062500  0.125000     24.000000
  0.375000  0.062500  0.125000     24.000000
  0.406250  0.062500  0.125000     24.000000
  0.437500  0.062500  0.125000     24.000000
  0.468750  0.062500  0.125000     12.000000
  0.093750  0.093750  0.125000     12.000000
  0.125000  0.093750  0.125000     24.000000
  0.156250  0.093750  0.125000     24.000000
  0.187500  0.093750  0.125000     24.000000
  0.218750  0.093750  0.125000     24.000000
  0.250000  0.093750  0.125000     24.000000
  0.281250  0.093750  0.125000     24.000000
  0.312500  0.093750  0.125000     24.000000
  0.343750  0.093750  0.125000     24.000000
  0.375000  0.093750  0.125000     24.000000
  0.406250  0.093750  0.125000     24.000000
  0.437500  0.093750  0.125000     24.000000
  0.125000  0.125000  0.125000     12.000000
  0.156250  0.125000  0.125000     24.000000
  0.187500  0.125000  0.125000     24.000000
  0.218750  0.125000  0.125000     24.000000
  0.250000  0.125000  0.125000     24.000000
  0.281250  0.125000  0.125000     24.000000
  0.312500  0.125000  0.125000     24.000000
  0.343750  0.125000  0.125000     24.000000
  0.375000  0.125000  0.125000     24.000000
  0.406250  0.125000  0.125000     24.000000
  0.437500  0.125000  0.125000     12.000000
  0.156250  0.156250  0.125000     12.000000
  0.187500  0.156250  0.125000     24.000000
  0.218750  0.156250  0.125000     24.000000
  0.250000  0.156250  0.125000     24.000000
  0.281250  0.156250  0.125000     24.000000
  0.312500  0.156250  0.125000     24.000000
  0.343750  0.156250  0.125000     24.000000
  0.375000  0.156250  0.125000     24.000000
  0.406250  0.156250  0.125000     24.000000
  0.187500  0.187500  0.125000     12.000000
  0.218750  0.187500  0.125000     24.000000
  0.250000  0.187500  0.125000     24.000000
  0.281250  0.187500  0.125000     24.000000
  0.312500  0.187500  0.125000     24.000000
  0.343750  0.187500  0.125000     24.000000
  0.375000  0.187500  0.125000     24.000000
  0.406250  0.187500  0.125000     12.000000
  0.218750  0.218750  0.125000     12.000000
  0.250000  0.218750  0.125000     24.000000
  0.281250  0.218750  0.125000     24.000000
  0.312500  0.218750  0.125000     24.000000
  0.343750  0.218750  0.125000     24.000000
  0.375000  0.218750  0.125000     24.000000
  0.250000  0.250000  0.125000     12.000000
  0.281250  0.250000  0.125000     24.000000
  0.312500  0.250000  0.125000     24.000000
  0.343750  0.250000  0.125000     24.000000
  0.375000  0.250000  0.125000     12.000000
  0.281250  0.281250  0.125000     12.000000
  0.312500  0.281250  0.125000     24.000000
  0.343750  0.281250  0.125000     24.000000
  0.312500  0.312500  0.125000     12.000000
  0.343750  0.312500  0.125000     12.000000
  0.000000  0.000000  0.156250      2.000000
  0.031250  0.000000  0.156250     12.000000
  0.062500  0.000000  0.156250     12.000000
  0.093750  0.000000  0.156250     12.000000
  0.125000  0.000000  0.156250     12.000000
  0.156250  0.000000  0.156250     12.000000
  0.187500  0.000000  0.156250     12.000000
  0.218750  0.000000  0.156250     12.000000
  0.250000  0.000000  0.156250     12.000000
  0.281250  0.000000  0.156250     12.000000
  0.312500  0.000000  0.156250     12.000000
  0.343750  0.000000  0.156250     12.000000
  0.375000  0.000000  0.156250     12.000000
  0.406250  0.000000  0.156250     12.000000
  0.437500  0.000000  0.156250     12.000000
  0.468750  0.000000  0.156250     12.000000
  0.500000  0.000000  0.156250      6.000000
  0.031250  0.031250  0.156250     12.000000
  0.062500  0.031250  0.156250     24.000000
  0.093750  0.031250  0.156250     24.000000
  0.125000  0.031250  0.156250     24.000000
  0.156250  0.031250  0.156250     24.000000
  0.187500  0.031250  0.156250     24.000000
  0.218750  0.031250  0.156250     24.000000
  0.250000  0.031250  0.156250     24.000000
  0.281250  0.031250  0.156250     24.000000
  0.312500  0.031250  0.156250     24.000000
  0.343750  0.031250  0.156250     24.000000
  0.375000  0.031250  0.156250     24.000000
  0.406250  0.031250  0.156250     24.000000
  0.437500  0.031250  0.156250     24.000000
  0.468750  0.031250  0.156250     24.000000
  0.062500  0.062500  0.156250     12.000000
  0.093750  0.062500  0.156250     24.000000
  0.125000  0.062500  0.156250     24.000000
  0.156250  0.062500  0.156250     24.000000
  0.187500  0.062500  0.156250     24.000000
  0.218750  0.062500  0.156250     24.000000
  0.250000  0.062500  0.156250     24.000000
  0.281250  0.062500  0.156250     24.000000
  0.312500  0.062500  0.156250     24.000000
  0.343750  0.062500  0.156250     24.000000
  0.375000  0.062500  0.156250     24.000000
  0.406250  0.062500  0.156250     24.000000
  0.437500  0.062500  0.156250     24.000000
  0.468750  0.062500  0.156250     12.000000
  0.093750  0.093750  0.156250     12.000000
  0.125000  0.093750  0.156250     24.000000
  0.156250  0.093750  0.156250     24.000000
  0.187500  0.093750  0.156250     24.000000
  0.218750  0.093750  0.156250     24.000000
  0.250000  0.093750  0.156250     24.000000
  0.281250  0.093750  0.156250     24.000000
  0.312500  0.093750  0.156250     24.000000
  0.343750  0.093750  0.156250     24.000000
  0.375000  0.093750  0.156250     24.000000
  0.406250  0.093750  0.156250     24.000000
  0.437500  0.093750  0.156250     24.000000
  0.125000  0.125000  0.156250     12.000000
  0.156250  0.125000  0.156250     24.000000
  0.187500  0.125000  0.156250     24.000000
  0.218750  0.125000  0.156250     24.000000
  0.250000  0.125000  0.156250     24.000000
  0.281250  0.125000  0.156250     24.000000
  0.312500  0.125000  0.156250     24.000000
  0.343750  0.125000  0.156250     24.000000
  0.375000  0.125000  0.156250     24.000000
  0.406250  0.125000  0.156250     24.000000
  0.437500  0.125000  0.156250     12.000000
  0.156250  0.156250  0.156250     12.000000
  0.187500  0.156250  0.156250     24.000000
  0.218750  0.156250  0.156250     24.000000
  0.250000  0.156250  0.156250     24.000000
  0.281250  0.156250  0.156250     24.000000
  0.312500  0.156250  0.156250     24.000000
  0.343750  0.156250  0.156250     24.000000
  0.375000  0.156250  0.156250     24.000000
  0.406250  0.156250  0.156250     24.000000
  0.187500  0.187500  0.156250     12.000000
  0.218750  0.187500  0.156250     24.000000
  0.250000  0.187500  0.156250     24.000000
  0.281250  0.187500  0.156250     24.000000
  0.312500  0.187500  0.156250     24.000000
  0.343750  0.187500  0.156250     24.000000
  0.375000  0.187500  0.156250     24.000000
  0.406250  0.187500  0.156250     12.000000
  0.218750  0.218750  0.156250     12.000000
  0.250000  0.218750  0.156250     24.000000
  0.281250  0.218750  0.156250     24.000000
  0.312500  0.218750  0.156250     24.000000
  0.343750  0.218750  0.156250     24.000000
  0.375000  0.218750  0.156250     24.000000
  0.250000  0.250000  0.156250     12.000000
  0.281250  0.250000  0.156250     24.000000
  0.312500  0.250000  0.156250     24.000000
  0.343750  0.250000  0.156250     24.000000
  0.375000  0.250000  0.156250     12.000000
  0.281250  0.281250  0.156250     12.000000
  0.312500  0.281250  0.156250     24.000000
  0.343750  0.281250  0.156250     24.000000
  0.312500  0.312500  0.156250     12.000000
  0.343750  0.312500  0.156250     12.000000
  0.000000  0.000000  0.187500      2.000000
  0.031250  0.000000  0.187500     12.000000
  0.062500  0.000000  0.187500     12.000000
  0.093750  0.000000  0.187500     12.000000
  0.125000  0.000000  0.187500     12.000000
  0.156250  0.000000  0.187500     12.000000
  0.187500  0.000000  0.187500     12.000000
  0.218750  0.000000  0.187500     12.000000
  0.250000  0.000000  0.187500     12.000000
  0.281250  0.000000  0.187500     12.000000
  0.312500  0.000000  0.187500     12.000000
  0.343750  0.000000  0.187500     12.000000
  0.375000  0.000000  0.187500     12.000000
  0.406250  0.000000  0.187500     12.000000
  0.437500  0.000000  0.187500     12.000000
  0.468750  0.000000  0.187500     12.000000
  0.500000  0.000000  0.187500      6.000000
  0.031250  0.031250  0.187500     12.000000
  0.062500  0.031250  0.187500     24.000000
  0.093750  0.031250  0.187500     24.000000
  0.125000  0.031250  0.187500     24.000000
  0.156250  0.031250  0.187500     24.000000
  0.187500  0.031250  0.187500     24.000000
  0.218750  0.031250  0.187500     24.000000
  0.250000  0.031250  0.187500     24.000000
  0.281250  0.031250  0.187500     24.000000
  0.312500  0.031250  0.187500     24.000000
  0.343750  0.031250  0.187500     24.000000
  0.375000  0.031250  0.187500     24.000000
  0.406250  0.031250  0.187500     24.000000
  0.437500  0.031250  0.187500     24.000000
  0.468750  0.031250  0.187500     24.000000
  0.062500  0.062500  0.187500     12.000000
  0.093750  0.062500  0.187500     24.000000
  0.125000  0.062500  0.187500     24.000000
  0.156250  0.062500  0.187500     24.000000
  0.187500  0.062500  0.187500     24.000000
  0.218750  0.062500  0.187500     24.000000
  0.250000  0.062500  0.187500     24.000000
  0.281250  0.062500  0.187500     24.000000
  0.312500  0.062500  0.187500     24.000000
  0.343750  0.062500  0.187500     24.000000
  0.375000  0.062500  0.187500     24.000000
  0.406250  0.062500  0.187500     24.000000
  0.437500  0.062500  0.187500     24.000000
  0.468750  0.062500  0.187500     12.000000
  0.093750  0.093750  0.187500     12.000000
  0.125000  0.093750  0.187500     24.000000
  0.156250  0.093750  0.187500     24.000000
  0.187500  0.093750  0.187500     24.000000
  0.218750  0.093750  0.187500     24.000000
  0.250000  0.093750  0.187500     24.000000
  0.281250  0.093750  0.187500     24.000000
  0.312500  0.093750  0.187500     24.000000
  0.343750  0.093750  0.187500     24.000000
  0.375000  0.093750  0.187500     24.000000
  0.406250  0.093750  0.187500     24.000000
  0.437500  0.093750  0.187500     24.000000
  0.125000  0.125000  0.187500     12.000000
  0.156250  0.125000  0.187500     24.000000
  0.187500  0.125000  0.187500     24.000000
  0.218750  0.125000  0.187500     24.000000
  0.250000  0.125000  0.187500     24.000000
  0.281250  0.125000  0.187500     24.000000
  0.312500  0.125000  0.187500     24.000000
  0.343750  0.125000  0.187500     24.000000
  0.375000  0.125000  0.187500     24.000000
  0.406250  0.125000  0.187500     24.000000
  0.437500  0.125000  0.187500     12.000000
  0.156250  0.156250  0.187500     12.000000
  0.187500  0.156250  0.187500     24.000000
  0.218750  0.156250  0.187500     24.000000
  0.250000  0.156250  0.187500     24.000000
  0.281250  0.156250  0.187500     24.000000
  0.312500  0.156250  0.187500     24.000000
  0.343750  0.156250  0.187500     24.000000
  0.375000  0.156250  0.187500     24.000000
  0.406250  0.156250  0.187500     24.000000
  0.187500  0.187500  0.187500     12.000000
  0.218750  0.187500  0.187500     24.000000
  0.250000  0.187500  0.187500     24.000000
  0.281250  0.187500  0.187500     24.000000
  0.312500  0.187500  0.187500     24.000000
  0.343750  0.187500  0.187500     24.000000
  0.375000  0.187500  0.187500     24.000000
  0.406250  0.187500  0.187500     12.000000
  0.218750  0.218750  0.187500     12.000000
  0.250000  0.218750  0.187500     24.000000
  0.281250  0.218750  0.187500     24.000000
  0.312500  0.218750  0.187500     24.000000
  0.343750  0.218750  0.187500     24.000000
  0.375000  0.218750  0.187500     24.000000
  0.250000  0.250000  0.187500     12.000000
  0.281250  0.250000  0.187500     24.000000
  0.312500  0.250000  0.187500     24.000000
  0.343750  0.250000  0.187500     24.000000
  0.375000  0.250000  0.187500     12.000000
  0.281250  0.281250  0.187500     12.000000
  0.312500  0.281250  0.187500     24.000000
  0.343750  0.281250  0.187500     24.000000
  0.312500  0.312500  0.187500     12.000000
  0.343750  0.312500  0.187500     12.000000
  0.000000  0.000000  0.218750      2.000000
  0.031250  0.000000  0.218750     12.000000
  0.062500  0.000000  0.218750     12.000000
  0.093750  0.000000  0.218750     12.000000
  0.125000  0.000000  0.218750     12.000000
  0.156250  0.000000  0.218750     12.000000
  0.187500  0.000000  0.218750     12.000000
  0.218750  0.000000  0.218750     12.000000
  0.250000  0.000000  0.218750     12.000000
  0.281250  0.000000  0.218750     12.000000
  0.312500  0.000000  0.218750     12.000000
  0.343750  0.000000  0.218750     12.000000
  0.375000  0.000000  0.218750     12.000000
  0.406250  0.000000  0.218750     12.000000
  0.437500  0.000000  0.218750     12.000000
  0.468750  0.000000  0.218750     12.000000
  0.500000  0.000000  0.218750      6.000000
  0.031250  0.031250  0.218750     12.000000
  0.062500  0.031250  0.218750     24.000000
  0.093750  0.031250  0.218750     24.000000
  0.125000  0.031250  0.218750     24.000000
  0.156250  0.031250  0.218750     24.000000
  0.187500  0.031250  0.218750     24.000000
  0.218750  0.031250  0.218750     24.000000
  0.250000  0.031250  0.218750     24.000000
  0.281250  0.031250  0.218750     24.000000
  0.312500  0.031250  0.218750     24.000000
  0.343750  0.031250  0.218750     24.000000
  0.375000  0.031250  0.218750     24.000000
  0.406250  0.031250  0.218750     24.000000
  0.437500  0.031250  0.218750     24.000000
  0.468750  0.031250  0.218750     24.000000
  0.062500  0.062500  0.218750     12.000000
  0.093750  0.062500  0.218750     24.000000
  0.125000  0.062500  0.218750     24.000000
  0.156250  0.062500  0.218750     24.000000
  0.187500  0.062500  0.218750     24.000000
  0.218750  0.062500  0.218750     24.000000
  0.250000  0.062500  0.218750     24.000000
  0.281250  0.062500  0.218750     24.000000
  0.312500  0.062500  0.218750     24.000000
  0.343750  0.062500  0.218750     24.000000
  0.375000  0.062500  0.218750     24.000000
  0.406250  0.062500  0.218750     24.000000
  0.437500  0.062500  0.218750     24.000000
  0.468750  0.062500  0.218750     12.000000
  0.093750  0.093750  0.218750     12.000000
  0.125000  0.093750  0.218750     24.000000
  0.156250  0.093750  0.218750     24.000000
  0.187500  0.093750  0.218750     24.000000
  0.218750  0.093750  0.218750     24.000000
  0.250000  0.093750  0.218750     24.000000
  0.281250  0.093750  0.218750     24.000000
  0.312500  0.093750  0.218750     24.000000
  0.343750  0.093750  0.218750     24.000000
  0.375000  0.093750  0.218750     24.000000
  0.406250  0.093750  0.218750     24.000000
  0.437500  0.093750  0.218750     24.000000
  0.125000  0.125000  0.218750     12.000000
  0.156250  0.125000  0.218750     24.000000
  0.187500  0.125000  0.218750     24.000000
  0.218750  0.125000  0.218750     24.000000
  0.250000  0.125000  0.218750     24.000000
  0.281250  0.125000  0.218750     24.000000
  0.312500  0.125000  0.218750     24.000000
  0.343750  0.125000  0.218750     24.000000
  0.375000  0.125000  0.218750     24.000000
  0.406250  0.125000  0.218750     24.000000
  0.437500  0.125000  0.218750     12.000000
  0.156250  0.156250  0.218750     12.000000
  0.187500  0.156250  0.218750     24.000000
  0.218750  0.156250  0.218750     24.000000
  0.250000  0.156250  0.218750     24.000000
  0.281250  0.156250  0.218750     24.000000
  0.312500  0.156250  0.218750     24.000000
  0.343750  0.156250  0.218750     24.000000
  0.375000  0.156250  0.218750     24.000000
  0.406250  0.156250  0.218750     24.000000
  0.187500  0.187500  0.218750     12.000000
  0.218750  0.187500  0.218750     24.000000
  0.250000  0.187500  0.218750     24.000000
  0.281250  0.187500  0.218750     24.000000
  0.312500  0.187500  0.218750     24.000000
  0.343750  0.187500  0.218750     24.000000
  0.375000  0.187500  0.218750     24.000000
  0.406250  0.187500  0.218750     12.000000
  0.218750  0.218750  0.218750     12.000000
  0.250000  0.218750  0.218750     24.000000
  0.281250  0.218750  0.218750     24.000000
  0.312500  0.218750  0.218750     24.000000
  0.343750  0.218750  0.218750     24.000000
  0.375000  0.218750  0.218750     24.000000
  0.250000  0.250000  0.218750     12.000000
  0.281250  0.250000  0.218750     24.000000
  0.312500  0.250000  0.218750     24.000000
  0.343750  0.250000  0.218750     24.000000
  0.375000  0.250000  0.218750     12.000000
  0.281250  0.281250  0.218750     12.000000
  0.312500  0.281250  0.218750     24.000000
  0.343750  0.281250  0.218750     24.000000
  0.312500  0.312500  0.218750     12.000000
  0.343750  0.312500  0.218750     12.000000
  0.000000  0.000000  0.250000      2.000000
  0.031250  0.000000  0.250000     12.000000
  0.062500  0.000000  0.250000     12.000000
  0.093750  0.000000  0.250000     12.000000
  0.125000  0.000000  0.250000     12.000000
  0.156250  0.000000  0.250000     12.000000
  0.187500  0.000000  0.250000     12.000000
  0.218750  0.000000  0.250000     12.000000
  0.250000  0.000000  0.250000     12.000000
  0.281250  0.000000  0.250000     12.000000
  0.312500  0.000000  0.250000     12.000000
  0.343750  0.000000  0.250000     12.000000
  0.375000  0.000000  0.250000     12.000000
  0.406250  0.000000  0.250000     12.000000
  0.437500  0.000000  0.250000     12.000000
  0.468750  0.000000  0.250000     12.000000
  0.500000  0.000000  0.250000      6.000000
  0.031250  0.031250  0.250000     12.000000
  0.062500  0.031250  0.250000     24.000000
  0.093750  0.031250  0.250000     24.000000
  0.125000  0.031250  0.250000     24.000000
  0.156250  0.031250  0.250000     24.000000
  0.187500  0.031250  0.250000     24.000000
  0.218750  0.031250  0.250000     24.000000
  0.250000  0.031250  0.250000     24.000000
  0.281250  0.031250  0.250000     24.000000
  0.312500  0.031250  0.250000     24.000000
  0.343750  0.031250  0.250000     24.000000
  0.375000  0.031250  0.250000     24.000000
  0.406250  0.031250  0.250000     24.000000
  0.437500  0.031250  0.250000     24.000000
  0.468750  0.031250  0.250000     24.000000
  0.062500  0.062500  0.250000     12.000000
  0.093750  0.062500  0.250000     24.000000
  0.125000  0.062500  0.250000     24.000000
  0.156250  0.062500  0.250000     24.000000
  0.187500  0.062500  0.250000     24.000000
  0.218750  0.062500  0.250000     24.000000
  0.250000  0.062500  0.250000     24.000000
  0.281250  0.062500  0.250000     24.000000
  0.312500  0.062500  0.250000     24.000000
  0.343750  0.062500  0.250000     24.000000
  0.375000  0.062500  0.250000     24.000000
  0.406250  0.062500  0.250000     24.000000
  0.437500  0.062500  0.250000     24.000000
  0.468750  0.062500  0.250000     12.000000
  0.093750  0.093750  0.250000     12.000000
  0.125000  0.093750  0.250000     24.000000
  0.156250  0.093750  0.250000     24.000000
  0.187500  0.093750  0.250000     24.000000
  0.218750  0.093750  0.250000     24.000000
  0.250000  0.093750  0.250000     24.000000
  0.281250  0.093750  0.250000     24.000000
  0.312500  0.093750  0.250000     24.000000
  0.343750  0.093750  0.250000     24.000000
  0.375000  0.093750  0.250000     24.000000
  0.406250  0.093750  0.250000     24.000000
  0.437500  0.093750  0.250000     24.000000
  0.125000  0.125000  0.250000     12.000000
  0.156250  0.125000  0.250000     24.000000
  0.187500  0.125000  0.250000     24.000000
  0.218750  0.125000  0.250000     24.000000
  0.250000  0.125000  0.250000     24.000000
  0.281250  0.125000  0.250000     24.000000
  0.312500  0.125000  0.250000     24.000000
  0.343750  0.125000  0.250000     24.000000
  0.375000  0.125000  0.250000     24.000000
  0.406250  0.125000  0.250000     24.000000
  0.437500  0.125000  0.250000     12.000000
  0.156250  0.156250  0.250000     12.000000
  0.187500  0.156250  0.250000     24.000000
  0.218750  0.156250  0.250000     24.000000
  0.250000  0.156250  0.250000     24.000000
  0.281250  0.156250  0.250000     24.000000
  0.312500  0.156250  0.250000     24.000000
  0.343750  0.156250  0.250000     24.000000
  0.375000  0.156250  0.250000     24.000000
  0.406250  0.156250  0.250000     24.000000
  0.187500  0.187500  0.250000     12.000000
  0.218750  0.187500  0.250000     24.000000
  0.250000  0.187500  0.250000     24.000000
  0.281250  0.187500  0.250000     24.000000
  0.312500  0.187500  0.250000     24.000000
  0.343750  0.187500  0.250000     24.000000
  0.375000  0.187500  0.250000     24.000000
  0.406250  0.187500  0.250000     12.000000
  0.218750  0.218750  0.250000     12.000000
  0.250000  0.218750  0.250000     24.000000
  0.281250  0.218750  0.250000     24.000000
  0.312500  0.218750  0.250000     24.000000
  0.343750  0.218750  0.250000     24.000000
  0.375000  0.218750  0.250000     24.000000
  0.250000  0.250000  0.250000     12.000000
  0.281250  0.250000  0.250000     24.000000
  0.312500  0.250000  0.250000     24.000000
  0.343750  0.250000  0.250000     24.000000
  0.375000  0.250000  0.250000     12.000000
  0.281250  0.281250  0.250000     12.000000
  0.312500  0.281250  0.250000     24.000000
  0.343750  0.281250  0.250000     24.000000
  0.312500  0.312500  0.250000     12.000000
  0.343750  0.312500  0.250000     12.000000
  0.000000  0.000000  0.281250      2.000000
  0.031250  0.000000  0.281250     12.000000
  0.062500  0.000000  0.281250     12.000000
  0.093750  0.000000  0.281250     12.000000
  0.125000  0.000000  0.281250     12.000000
  0.156250  0.000000  0.281250     12.000000
  0.187500  0.000000  0.281250     12.000000
  0.218750  0.000000  0.281250     12.000000
  0.250000  0.000000  0.281250     12.000000
  0.281250  0.000000  0.281250     12.000000
  0.312500  0.000000  0.281250     12.000000
  0.343750  0.000000  0.281250     12.000000
  0.375000  0.000000  0.281250     12.000000
  0.406250  0.000000  0.281250     12.000000
  0.437500  0.000000  0.281250     12.000000
  0.468750  0.000000  0.281250     12.000000
  0.500000  0.000000  0.281250      6.000000
  0.031250  0.031250  0.281250     12.000000
  0.062500  0.031250  0.281250     24.000000
  0.093750  0.031250  0.281250     24.000000
  0.125000  0.031250  0.281250     24.000000
  0.156250  0.031250  0.281250     24.000000
  0.187500  0.031250  0.281250     24.000000
  0.218750  0.031250  0.281250     24.000000
  0.250000  0.031250  0.281250     24.000000
  0.281250  0.031250  0.281250     24.000000
  0.312500  0.031250  0.281250     24.000000
  0.343750  0.031250  0.281250     24.000000
  0.375000  0.031250  0.281250     24.000000
  0.406250  0.031250  0.281250     24.000000
  0.437500  0.031250  0.281250     24.000000
  0.468750  0.031250  0.281250     24.000000
  0.062500  0.062500  0.281250     12.000000
  0.093750  0.062500  0.281250     24.000000
  0.125000  0.062500  0.281250     24.000000
  0.156250  0.062500  0.281250     24.000000
  0.187500  0.062500  0.281250     24.000000
  0.218750  0.062500  0.281250     24.000000
  0.250000  0.062500  0.281250     24.000000
  0.281250  0.062500  0.281250     24.000000
  0.312500  0.062500  0.281250     24.000000
  0.343750  0.062500  0.281250     24.000000
  0.375000  0.062500  0.281250     24.000000
  0.406250  0.062500  0.281250     24.000000
  0.437500  0.062500  0.281250     24.000000
  0.468750  0.062500  0.281250     12.000000
  0.093750  0.093750  0.281250     12.000000
  0.125000  0.093750  0.281250     24.000000
  0.156250  0.093750  0.281250     24.000000
  0.187500  0.093750  0.281250     24.000000
  0.218750  0.093750  0.281250     24.000000
  0.250000  0.093750  0.281250     24.000000
  0.281250  0.093750  0.281250     24.000000
  0.312500  0.093750  0.281250     24.000000
  0.343750  0.093750  0.281250     24.000000
  0.375000  0.093750  0.281250     24.000000
  0.406250  0.093750  0.281250     24.000000
  0.437500  0.093750  0.281250     24.000000
  0.125000  0.125000  0.281250     12.000000
  0.156250  0.125000  0.281250     24.000000
  0.187500  0.125000  0.281250     24.000000
  0.218750  0.125000  0.281250     24.000000
  0.250000  0.125000  0.281250     24.000000
  0.281250  0.125000  0.281250     24.000000
  0.312500  0.125000  0.281250     24.000000
  0.343750  0.125000  0.281250     24.000000
  0.375000  0.125000  0.281250     24.000000
  0.406250  0.125000  0.281250     24.000000
  0.437500  0.125000  0.281250     12.000000
  0.156250  0.156250  0.281250     12.000000
  0.187500  0.156250  0.281250     24.000000
  0.218750  0.156250  0.281250     24.000000
  0.250000  0.156250  0.281250     24.000000
  0.281250  0.156250  0.281250     24.000000
  0.312500  0.156250  0.281250     24.000000
  0.343750  0.156250  0.281250     24.000000
  0.375000  0.156250  0.281250     24.000000
  0.406250  0.156250  0.281250     24.000000
  0.187500  0.187500  0.281250     12.000000
  0.218750  0.187500  0.281250     24.000000
  0.250000  0.187500  0.281250     24.000000
  0.281250  0.187500  0.281250     24.000000
  0.312500  0.187500  0.281250     24.000000
  0.343750  0.187500  0.281250     24.000000
  0.375000  0.187500  0.281250     24.000000
  0.406250  0.187500  0.281250     12.000000
  0.218750  0.218750  0.281250     12.000000
  0.250000  0.218750  0.281250     24.000000
  0.281250  0.218750  0.281250     24.000000
  0.312500  0.218750  0.281250     24.000000
  0.343750  0.218750  0.281250     24.000000
  0.375000  0.218750  0.281250     24.000000
  0.250000  0.250000  0.281250     12.000000
  0.281250  0.250000  0.281250     24.000000
  0.312500  0.250000  0.281250     24.000000
  0.343750  0.250000  0.281250     24.000000
  0.375000  0.250000  0.281250     12.000000
  0.281250  0.281250  0.281250     12.000000
  0.312500  0.281250  0.281250     24.000000
  0.343750  0.281250  0.281250     24.000000
  0.312500  0.312500  0.281250     12.000000
  0.343750  0.312500  0.281250     12.000000
  0.000000  0.000000  0.312500      2.000000
  0.031250  0.000000  0.312500     12.000000
  0.062500  0.000000  0.312500     12.000000
  0.093750  0.000000  0.312500     12.000000
  0.125000  0.000000  0.312500     12.000000
  0.156250  0.000000  0.312500     12.000000
  0.187500  0.000000  0.312500     12.000000
  0.218750  0.000000  0.312500     12.000000
  0.250000  0.000000  0.312500     12.000000
  0.281250  0.000000  0.312500     12.000000
  0.312500  0.000000  0.312500     12.000000
  0.343750  0.000000  0.312500     12.000000
  0.375000  0.000000  0.312500     12.000000
  0.406250  0.000000  0.312500     12.000000
  0.437500  0.000000  0.312500     12.000000
  0.468750  0.000000  0.312500     12.000000
  0.500000  0.000000  0.312500      6.000000
  0.031250  0.031250  0.312500     12.000000
  0.062500  0.031250  0.312500     24.000000
  0.093750  0.031250  0.312500     24.000000
  0.125000  0.031250  0.312500     24.000000
  0.156250  0.031250  0.312500     24.000000
  0.187500  0.031250  0.312500     24.000000
  0.218750  0.031250  0.312500     24.000000
  0.250000  0.031250  0.312500     24.000000
  0.281250  0.031250  0.312500     24.000000
  0.312500  0.031250  0.312500     24.000000
  0.343750  0.031250  0.312500     24.000000
  0.375000  0.031250  0.312500     24.000000
  0.406250  0.031250  0.312500     24.000000
  0.437500  0.031250  0.312500     24.000000
  0.468750  0.031250  0.312500     24.000000
  0.062500  0.062500  0.312500     12.000000
  0.093750  0.062500  0.312500     24.000000
  0.125000  0.062500  0.312500     24.000000
  0.156250  0.062500  0.312500     24.000000
  0.187500  0.062500  0.312500     24.000000
  0.218750  0.062500  0.312500     24.000000
  0.250000  0.062500  0.312500     24.000000
  0.281250  0.062500  0.312500     24.000000
  0.312500  0.062500  0.312500     24.000000
  0.343750  0.062500  0.312500     24.000000
  0.375000  0.062500  0.312500     24.000000
  0.406250  0.062500  0.312500     24.000000
  0.437500  0.062500  0.312500     24.000000
  0.468750  0.062500  0.312500     12.000000
  0.093750  0.093750  0.312500     12.000000
  0.125000  0.093750  0.312500     24.000000
  0.156250  0.093750  0.312500     24.000000
  0.187500  0.093750  0.312500     24.000000
  0.218750  0.093750  0.312500     24.000000
  0.250000  0.093750  0.312500     24.000000
  0.281250  0.093750  0.312500     24.000000
  0.312500  0.093750  0.312500     24.000000
  0.343750  0.093750  0.312500     24.000000
  0.375000  0.093750  0.312500     24.000000
  0.406250  0.093750  0.312500     24.000000
  0.437500  0.093750  0.312500     24.000000
  0.125000  0.125000  0.312500     12.000000
  0.156250  0.125000  0.312500     24.000000
  0.187500  0.125000  0.312500     24.000000
  0.218750  0.125000  0.312500     24.000000
  0.250000  0.125000  0.312500     24.000000
  0.281250  0.125000  0.312500     24.000000
  0.312500  0.125000  0.312500     24.000000
  0.343750  0.125000  0.312500     24.000000
  0.375000  0.125000  0.312500     24.000000
  0.406250  0.125000  0.312500     24.000000
  0.437500  0.125000  0.312500     12.000000
  0.156250  0.156250  0.312500     12.000000
  0.187500  0.156250  0.312500     24.000000
  0.218750  0.156250  0.312500     24.000000
  0.250000  0.156250  0.312500     24.000000
  0.281250  0.156250  0.312500     24.000000
  0.312500  0.156250  0.312500     24.000000
  0.343750  0.156250  0.312500     24.000000
  0.375000  0.156250  0.312500     24.000000
  0.406250  0.156250  0.312500     24.000000
  0.187500  0.187500  0.312500     12.000000
  0.218750  0.187500  0.312500     24.000000
  0.250000  0.187500  0.312500     24.000000
  0.281250  0.187500  0.312500     24.000000
  0.312500  0.187500  0.312500     24.000000
  0.343750  0.187500  0.312500     24.000000
  0.375000  0.187500  0.312500     24.000000
  0.406250  0.187500  0.312500     12.000000
  0.218750  0.218750  0.312500     12.000000
  0.250000  0.218750  0.312500     24.000000
  0.281250  0.218750  0.312500     24.000000
  0.312500  0.218750  0.312500     24.000000
  0.343750  0.218750  0.312500     24.000000
  0.375000  0.218750  0.312500     24.000000
  0.250000  0.250000  0.312500     12.000000
  0.281250  0.250000  0.312500     24.000000
  0.312500  0.250000  0.312500     24.000000
  0.343750  0.250000  0.312500     24.000000
  0.375000  0.250000  0.312500     12.000000
  0.281250  0.281250  0.312500     12.000000
  0.312500  0.281250  0.312500     24.000000
  0.343750  0.281250  0.312500     24.000000
  0.312500  0.312500  0.312500     12.000000
  0.343750  0.312500  0.312500     12.000000
  0.000000  0.000000  0.343750      2.000000
  0.031250  0.000000  0.343750     12.000000
  0.062500  0.000000  0.343750     12.000000
  0.093750  0.000000  0.343750     12.000000
  0.125000  0.000000  0.343750     12.000000
  0.156250  0.000000  0.343750     12.000000
  0.187500  0.000000  0.343750     12.000000
  0.218750  0.000000  0.343750     12.000000
  0.250000  0.000000  0.343750     12.000000
  0.281250  0.000000  0.343750     12.000000
  0.312500  0.000000  0.343750     12.000000
  0.343750  0.000000  0.343750     12.000000
  0.375000  0.000000  0.343750     12.000000
  0.406250  0.000000  0.343750     12.000000
  0.437500  0.000000  0.343750     12.000000
  0.468750  0.000000  0.343750     12.000000
  0.500000  0.000000  0.343750      6.000000
  0.031250  0.031250  0.343750     12.000000
  0.062500  0.031250  0.343750     24.000000
  0.093750  0.031250  0.343750     24.000000
  0.125000  0.031250  0.343750     24.000000
  0.156250  0.031250  0.343750     24.000000
  0.187500  0.031250  0.343750     24.000000
  0.218750  0.031250  0.343750     24.000000
  0.250000  0.031250  0.343750     24.000000
  0.281250  0.031250  0.343750     24.000000
  0.312500  0.031250  0.343750     24.000000
  0.343750  0.031250  0.343750     24.000000
  0.375000  0.031250  0.343750     24.000000
  0.406250  0.031250  0.343750     24.000000
  0.437500  0.031250  0.343750     24.000000
  0.468750  0.031250  0.343750     24.000000
  0.062500  0.062500  0.343750     12.000000
  0.093750  0.062500  0.343750     24.000000
  0.125000  0.062500  0.343750     24.000000
  0.156250  0.062500  0.343750     24.000000
  0.187500  0.062500  0.343750     24.000000
  0.218750  0.062500  0.343750     24.000000
  0.250000  0.062500  0.343750     24.000000
  0.281250  0.062500  0.343750     24.000000
  0.312500  0.062500  0.343750     24.000000
  0.343750  0.062500  0.343750     24.000000
  0.375000  0.062500  0.343750     24.000000
  0.406250  0.062500  0.343750     24.000000
  0.437500  0.062500  0.343750     24.000000
  0.468750  0.062500  0.343750     12.000000
  0.093750  0.093750  0.343750     12.000000
  0.125000  0.093750  0.343750     24.000000
  0.156250  0.093750  0.343750     24.000000
  0.187500  0.093750  0.343750     24.000000
  0.218750  0.093750  0.343750     24.000000
  0.250000  0.093750  0.343750     24.000000
  0.281250  0.093750  0.343750     24.000000
  0.312500  0.093750  0.343750     24.000000
  0.343750  0.093750  0.343750     24.000000
  0.375000  0.093750  0.343750     24.000000
  0.406250  0.093750  0.343750     24.000000
  0.437500  0.093750  0.343750     24.000000
  0.125000  0.125000  0.343750     12.000000
  0.156250  0.125000  0.343750     24.000000
  0.187500  0.125000  0.343750     24.000000
  0.218750  0.125000  0.343750     24.000000
  0.250000  0.125000  0.343750     24.000000
  0.281250  0.125000  0.343750     24.000000
  0.312500  0.125000  0.343750     24.000000
  0.343750  0.125000  0.343750     24.000000
  0.375000  0.125000  0.343750     24.000000
  0.406250  0.125000  0.343750     24.000000
  0.437500  0.125000  0.343750     12.000000
  0.156250  0.156250  0.343750     12.000000
  0.187500  0.156250  0.343750     24.000000
  0.218750  0.156250  0.343750     24.000000
  0.250000  0.156250  0.343750     24.000000
  0.281250  0.156250  0.343750     24.000000
  0.312500  0.156250  0.343750     24.000000
  0.343750  0.156250  0.343750     24.000000
  0.375000  0.156250  0.343750     24.000000
  0.406250  0.156250  0.343750     24.000000
  0.187500  0.187500  0.343750     12.000000
  0.218750  0.187500  0.343750     24.000000
  0.250000  0.187500  0.343750     24.000000
  0.281250  0.187500  0.343750     24.000000
  0.312500  0.187500  0.343750     24.000000
  0.343750  0.187500  0.343750     24.000000
  0.375000  0.187500  0.343750     24.000000
  0.406250  0.187500  0.343750     12.000000
  0.218750  0.218750  0.343750     12.000000
  0.250000  0.218750  0.343750     24.000000
  0.281250  0.218750  0.343750     24.000000
  0.312500  0.218750  0.343750     24.000000
  0.343750  0.218750  0.343750     24.000000
  0.375000  0.218750  0.343750     24.000000
  0.250000  0.250000  0.343750     12.000000
  0.281250  0.250000  0.343750     24.000000
  0.312500  0.250000  0.343750     24.000000
  0.343750  0.250000  0.343750     24.000000
  0.375000  0.250000  0.343750     12.000000
  0.281250  0.281250  0.343750     12.000000
  0.312500  0.281250  0.343750     24.000000
  0.343750  0.281250  0.343750     24.000000
  0.312500  0.312500  0.343750     12.000000
  0.343750  0.312500  0.343750     12.000000
  0.000000  0.000000  0.375000      2.000000
  0.031250  0.000000  0.375000     12.000000
  0.062500  0.000000  0.375000     12.000000
  0.093750  0.000000  0.375000     12.000000
  0.125000  0.000000  0.375000     12.000000
  0.156250  0.000000  0.375000     12.000000
  0.187500  0.000000  0.375000     12.000000
  0.218750  0.000000  0.375000     12.000000
  0.250000  0.000000  0.375000     12.000000
  0.281250  0.000000  0.375000     12.000000
  0.312500  0.000000  0.375000     12.000000
  0.343750  0.000000  0.375000     12.000000
  0.375000  0.000000  0.375000     12.000000
  0.406250  0.000000  0.375000     12.000000
  0.437500  0.000000  0.375000     12.000000
  0.468750  0.000000  0.375000     12.000000
  0.500000  0.000000  0.375000      6.000000
  0.031250  0.031250  0.375000     12.000000
  0.062500  0.031250  0.375000     24.000000
  0.093750  0.031250  0.375000     24.000000
  0.125000  0.031250  0.375000     24.000000
  0.156250  0.031250  0.375000     24.000000
  0.187500  0.031250  0.375000     24.000000
  0.218750  0.031250  0.375000     24.000000
  0.250000  0.031250  0.375000     24.000000
  0.281250  0.031250  0.375000     24.000000
  0.312500  0.031250  0.375000     24.000000
  0.343750  0.031250  0.375000     24.000000
  0.375000  0.031250  0.375000     24.000000
  0.406250  0.031250  0.375000     24.000000
  0.437500  0.031250  0.375000     24.000000
  0.468750  0.031250  0.375000     24.000000
  0.062500  0.062500  0.375000     12.000000
  0.093750  0.062500  0.375000     24.000000
  0.125000  0.062500  0.375000     24.000000
  0.156250  0.062500  0.375000     24.000000
  0.187500  0.062500  0.375000     24.000000
  0.218750  0.062500  0.375000     24.000000
  0.250000  0.062500  0.375000     24.000000
  0.281250  0.062500  0.375000     24.000000
  0.312500  0.062500  0.375000     24.000000
  0.343750  0.062500  0.375000     24.000000
  0.375000  0.062500  0.375000     24.000000
  0.406250  0.062500  0.375000     24.000000
  0.437500  0.062500  0.375000     24.000000
  0.468750  0.062500  0.375000     12.000000
  0.093750  0.093750  0.375000     12.000000
  0.125000  0.093750  0.375000     24.000000
  0.156250  0.093750  0.375000     24.000000
  0.187500  0.093750  0.375000     24.000000
  0.218750  0.093750  0.375000     24.000000
  0.250000  0.093750  0.375000     24.000000
  0.281250  0.093750  0.375000     24.000000
  0.312500  0.093750  0.375000     24.000000
  0.343750  0.093750  0.375000     24.000000
  0.375000  0.093750  0.375000     24.000000
  0.406250  0.093750  0.375000     24.000000
  0.437500  0.093750  0.375000     24.000000
  0.125000  0.125000  0.375000     12.000000
  0.156250  0.125000  0.375000     24.000000
  0.187500  0.125000  0.375000     24.000000
  0.218750  0.125000  0.375000     24.000000
  0.250000  0.125000  0.375000     24.000000
  0.281250  0.125000  0.375000     24.000000
  0.312500  0.125000  0.375000     24.000000
  0.343750  0.125000  0.375000     24.000000
  0.375000  0.125000  0.375000     24.000000
  0.406250  0.125000  0.375000     24.000000
  0.437500  0.125000  0.375000     12.000000
  0.156250  0.156250  0.375000     12.000000
  0.187500  0.156250  0.375000     24.000000
  0.218750  0.156250  0.375000     24.000000
  0.250000  0.156250  0.375000     24.000000
  0.281250  0.156250  0.375000     24.000000
  0.312500  0.156250  0.375000     24.000000
  0.343750  0.156250  0.375000     24.000000
  0.375000  0.156250  0.375000     24.000000
  0.406250  0.156250  0.375000     24.000000
  0.187500  0.187500  0.375000     12.000000
  0.218750  0.187500  0.375000     24.000000
  0.250000  0.187500  0.375000     24.000000
  0.281250  0.187500  0.375000     24.000000
  0.312500  0.187500  0.375000     24.000000
  0.343750  0.187500  0.375000     24.000000
  0.375000  0.187500  0.375000     24.000000
  0.406250  0.187500  0.375000     12.000000
  0.218750  0.218750  0.375000     12.000000
  0.250000  0.218750  0.375000     24.000000
  0.281250  0.218750  0.375000     24.000000
  0.312500  0.218750  0.375000     24.000000
  0.343750  0.218750  0.375000     24.000000
  0.375000  0.218750  0.375000     24.000000
  0.250000  0.250000  0.375000     12.000000
  0.281250  0.250000  0.375000     24.000000
  0.312500  0.250000  0.375000     24.000000
  0.343750  0.250000  0.375000     24.000000
  0.375000  0.250000  0.375000     12.000000
  0.281250  0.281250  0.375000     12.000000
  0.312500  0.281250  0.375000     24.000000
  0.343750  0.281250  0.375000     24.000000
  0.312500  0.312500  0.375000     12.000000
  0.343750  0.312500  0.375000     12.000000
  0.000000  0.000000  0.406250      2.000000
  0.031250  0.000000  0.406250     12.000000
  0.062500  0.000000  0.406250     12.000000
  0.093750  0.000000  0.406250     12.000000
  0.125000  0.000000  0.406250     12.000000
  0.156250  0.000000  0.406250     12.000000
  0.187500  0.000000  0.406250     12.000000
  0.218750  0.000000  0.406250     12.000000
  0.250000  0.000000  0.406250     12.000000
  0.281250  0.000000  0.406250     12.000000
  0.312500  0.000000  0.406250     12.000000
  0.343750  0.000000  0.406250     12.000000
  0.375000  0.000000  0.406250     12.000000
  0.406250  0.000000  0.406250     12.000000
  0.437500  0.000000  0.406250     12.000000
  0.468750  0.000000  0.406250     12.000000
  0.500000  0.000000  0.406250      6.000000
  0.031250  0.031250  0.406250     12.000000
  0.062500  0.031250  0.406250     24.000000
  0.093750  0.031250  0.406250     24.000000
  0.125000  0.031250  0.406250     24.000000
  0.156250  0.031250  0.406250     24.000000
  0.187500  0.031250  0.406250     24.000000
  0.218750  0.031250  0.406250     24.000000
  0.250000  0.031250  0.406250     24.000000
  0.281250  0.031250  0.406250     24.000000
  0.312500  0.031250  0.406250     24.000000
  0.343750  0.031250  0.406250     24.000000
  0.375000  0.031250  0.406250     24.000000
  0.406250  0.031250  0.406250     24.000000
  0.437500  0.031250  0.406250     24.000000
  0.468750  0.031250  0.406250     24.000000
  0.062500  0.062500  0.406250     12.000000
  0.093750  0.062500  0.406250     24.000000
  0.125000  0.062500  0.406250     24.000000
  0.156250  0.062500  0.406250     24.000000
  0.187500  0.062500  0.406250     24.000000
  0.218750  0.062500  0.406250     24.000000
  0.250000  0.062500  0.406250     24.000000
  0.281250  0.062500  0.406250     24.000000
  0.312500  0.062500  0.406250     24.000000
  0.343750  0.062500  0.406250     24.000000
  0.375000  0.062500  0.406250     24.000000
  0.406250  0.062500  0.406250     24.000000
  0.437500  0.062500  0.406250     24.000000
  0.468750  0.062500  0.406250     12.000000
  0.093750  0.093750  0.406250     12.000000
  0.125000  0.093750  0.406250     24.000000
  0.156250  0.093750  0.406250     24.000000
  0.187500  0.093750  0.406250     24.000000
  0.218750  0.093750  0.406250     24.000000
  0.250000  0.093750  0.406250     24.000000
  0.281250  0.093750  0.406250     24.000000
  0.312500  0.093750  0.406250     24.000000
  0.343750  0.093750  0.406250     24.000000
  0.375000  0.093750  0.406250     24.000000
  0.406250  0.093750  0.406250     24.000000
  0.437500  0.093750  0.406250     24.000000
  0.125000  0.125000  0.406250     12.000000
  0.156250  0.125000  0.406250     24.000000
  0.187500  0.125000  0.406250     24.000000
  0.218750  0.125000  0.406250     24.000000
  0.250000  0.125000  0.406250     24.000000
  0.281250  0.125000  0.406250     24.000000
  0.312500  0.125000  0.406250     24.000000
  0.343750  0.125000  0.406250     24.000000
  0.375000  0.125000  0.406250     24.000000
  0.406250  0.125000  0.406250     24.000000
  0.437500  0.125000  0.406250     12.000000
  0.156250  0.156250  0.406250     12.000000
  0.187500  0.156250  0.406250     24.000000
  0.218750  0.156250  0.406250     24.000000
  0.250000  0.156250  0.406250     24.000000
  0.281250  0.156250  0.406250     24.000000
  0.312500  0.156250  0.406250     24.000000
  0.343750  0.156250  0.406250     24.000000
  0.375000  0.156250  0.406250     24.000000
  0.406250  0.156250  0.406250     24.000000
  0.187500  0.187500  0.406250     12.000000
  0.218750  0.187500  0.406250     24.000000
  0.250000  0.187500  0.406250     24.000000
  0.281250  0.187500  0.406250     24.000000
  0.312500  0.187500  0.406250     24.000000
  0.343750  0.187500  0.406250     24.000000
  0.375000  0.187500  0.406250     24.000000
  0.406250  0.187500  0.406250     12.000000
  0.218750  0.218750  0.406250     12.000000
  0.250000  0.218750  0.406250     24.000000
  0.281250  0.218750  0.406250     24.000000
  0.312500  0.218750  0.406250     24.000000
  0.343750  0.218750  0.406250     24.000000
  0.375000  0.218750  0.406250     24.000000
  0.250000  0.250000  0.406250     12.000000
  0.281250  0.250000  0.406250     24.000000
  0.312500  0.250000  0.406250     24.000000
  0.343750  0.250000  0.406250     24.000000
  0.375000  0.250000  0.406250     12.000000
  0.281250  0.281250  0.406250     12.000000
  0.312500  0.281250  0.406250     24.000000
  0.343750  0.281250  0.406250     24.000000
  0.312500  0.312500  0.406250     12.000000
  0.343750  0.312500  0.406250     12.000000
  0.000000  0.000000  0.437500      2.000000
  0.031250  0.000000  0.437500     12.000000
  0.062500  0.000000  0.437500     12.000000
  0.093750  0.000000  0.437500     12.000000
  0.125000  0.000000  0.437500     12.000000
  0.156250  0.000000  0.437500     12.000000
  0.187500  0.000000  0.437500     12.000000
  0.218750  0.000000  0.437500     12.000000
  0.250000  0.000000  0.437500     12.000000
  0.281250  0.000000  0.437500     12.000000
  0.312500  0.000000  0.437500     12.000000
  0.343750  0.000000  0.437500     12.000000
  0.375000  0.000000  0.437500     12.000000
  0.406250  0.000000  0.437500     12.000000
  0.437500  0.000000  0.437500     12.000000
  0.468750  0.000000  0.437500     12.000000
  0.500000  0.000000  0.437500      6.000000
  0.031250  0.031250  0.437500     12.000000
  0.062500  0.031250  0.437500     24.000000
  0.093750  0.031250  0.437500     24.000000
  0.125000  0.031250  0.437500     24.000000
  0.156250  0.031250  0.437500     24.000000
  0.187500  0.031250  0.437500     24.000000
  0.218750  0.031250  0.437500     24.000000
  0.250000  0.031250  0.437500     24.000000
  0.281250  0.031250  0.437500     24.000000
  0.312500  0.031250  0.437500     24.000000
  0.343750  0.031250  0.437500     24.000000
  0.375000  0.031250  0.437500     24.000000
  0.406250  0.031250  0.437500     24.000000
  0.437500  0.031250  0.437500     24.000000
  0.468750  0.031250  0.437500     24.000000
  0.062500  0.062500  0.437500     12.000000
  0.093750  0.062500  0.437500     24.000000
  0.125000  0.062500  0.437500     24.000000
  0.156250  0.062500  0.437500     24.000000
  0.187500  0.062500  0.437500     24.000000
  0.218750  0.062500  0.437500     24.000000
  0.250000  0.062500  0.437500     24.000000
  0.281250  0.062500  0.437500     24.000000
  0.312500  0.062500  0.437500     24.000000
  0.343750  0.062500  0.437500     24.000000
  0.375000  0.062500  0.437500     24.000000
  0.406250  0.062500  0.437500     24.000000
  0.437500  0.062500  0.437500     24.000000
  0.468750  0.062500  0.437500     12.000000
  0.093750  0.093750  0.437500     12.000000
  0.125000  0.093750  0.437500     24.000000
  0.156250  0.093750  0.437500     24.000000
  0.187500  0.093750  0.437500     24.000000
  0.218750  0.093750  0.437500     24.000000
  0.250000  0.093750  0.437500     24.000000
  0.281250  0.093750  0.437500     24.000000
  0.312500  0.093750  0.437500     24.000000
  0.343750  0.093750  0.437500     24.000000
  0.375000  0.093750  0.437500     24.000000
  0.406250  0.093750  0.437500     24.000000
  0.437500  0.093750  0.437500     24.000000
  0.125000  0.125000  0.437500     12.000000
  0.156250  0.125000  0.437500     24.000000
  0.187500  0.125000  0.437500     24.000000
  0.218750  0.125000  0.437500     24.000000
  0.250000  0.125000  0.437500     24.000000
  0.281250  0.125000  0.437500     24.000000
  0.312500  0.125000  0.437500     24.000000
  0.343750  0.125000  0.437500     24.000000
  0.375000  0.125000  0.437500     24.000000
  0.406250  0.125000  0.437500     24.000000
  0.437500  0.125000  0.437500     12.000000
  0.156250  0.156250  0.437500     12.000000
  0.187500  0.156250  0.437500     24.000000
  0.218750  0.156250  0.437500     24.000000
  0.250000  0.156250  0.437500     24.000000
  0.281250  0.156250  0.437500     24.000000
  0.312500  0.156250  0.437500     24.000000
  0.343750  0.156250  0.437500     24.000000
  0.375000  0.156250  0.437500     24.000000
  0.406250  0.156250  0.437500     24.000000
  0.187500  0.187500  0.437500     12.000000
  0.218750  0.187500  0.437500     24.000000
  0.250000  0.187500  0.437500     24.000000
  0.281250  0.187500  0.437500     24.000000
  0.312500  0.187500  0.437500     24.000000
  0.343750  0.187500  0.437500     24.000000
  0.375000  0.187500  0.437500     24.000000
  0.406250  0.187500  0.437500     12.000000
  0.218750  0.218750  0.437500     12.000000
  0.250000  0.218750  0.437500     24.000000
  0.281250  0.218750  0.437500     24.000000
  0.312500  0.218750  0.437500     24.000000
  0.343750  0.218750  0.437500     24.000000
  0.375000  0.218750  0.437500     24.000000
  0.250000  0.250000  0.437500     12.000000
  0.281250  0.250000  0.437500     24.000000
  0.312500  0.250000  0.437500     24.000000
  0.343750  0.250000  0.437500     24.000000
  0.375000  0.250000  0.437500     12.000000
  0.281250  0.281250  0.437500     12.000000
  0.312500  0.281250  0.437500     24.000000
  0.343750  0.281250  0.437500     24.000000
  0.312500  0.312500  0.437500     12.000000
  0.343750  0.312500  0.437500     12.000000
  0.000000  0.000000  0.468750      2.000000
  0.031250  0.000000  0.468750     12.000000
  0.062500  0.000000  0.468750     12.000000
  0.093750  0.000000  0.468750     12.000000
  0.125000  0.000000  0.468750     12.000000
  0.156250  0.000000  0.468750     12.000000
  0.187500  0.000000  0.468750     12.000000
  0.218750  0.000000  0.468750     12.000000
  0.250000  0.000000  0.468750     12.000000
  0.281250  0.000000  0.468750     12.000000
  0.312500  0.000000  0.468750     12.000000
  0.343750  0.000000  0.468750     12.000000
  0.375000  0.000000  0.468750     12.000000
  0.406250  0.000000  0.468750     12.000000
  0.437500  0.000000  0.468750     12.000000
  0.468750  0.000000  0.468750     12.000000
  0.500000  0.000000  0.468750      6.000000
  0.031250  0.031250  0.468750     12.000000
  0.062500  0.031250  0.468750     24.000000
  0.093750  0.031250  0.468750     24.000000
  0.125000  0.031250  0.468750     24.000000
  0.156250  0.031250  0.468750     24.000000
  0.187500  0.031250  0.468750     24.000000
  0.218750  0.031250  0.468750     24.000000
  0.250000  0.031250  0.468750     24.000000
  0.281250  0.031250  0.468750     24.000000
  0.312500  0.031250  0.468750     24.000000
  0.343750  0.031250  0.468750     24.000000
  0.375000  0.031250  0.468750     24.000000
  0.406250  0.031250  0.468750     24.000000
  0.437500  0.031250  0.468750     24.000000
  0.468750  0.031250  0.468750     24.000000
  0.062500  0.062500  0.468750     12.000000
  0.093750  0.062500  0.468750     24.000000
  0.125000  0.062500  0.468750     24.000000
  0.156250  0.062500  0.468750     24.000000
  0.187500  0.062500  0.468750     24.000000
  0.218750  0.062500  0.468750     24.000000
  0.250000  0.062500  0.468750     24.000000
  0.281250  0.062500  0.468750     24.000000
  0.312500  0.062500  0.468750     24.000000
  0.343750  0.062500  0.468750     24.000000
  0.375000  0.062500  0.468750     24.000000
  0.406250  0.062500  0.468750     24.000000
  0.437500  0.062500  0.468750     24.000000
  0.468750  0.062500  0.468750     12.000000
  0.093750  0.093750  0.468750     12.000000
  0.125000  0.093750  0.468750     24.000000
  0.156250  0.093750  0.468750     24.000000
  0.187500  0.093750  0.468750     24.000000
  0.218750  0.093750  0.468750     24.000000
  0.250000  0.093750  0.468750     24.000000
  0.281250  0.093750  0.468750     24.000000
  0.312500  0.093750  0.468750     24.000000
  0.343750  0.093750  0.468750     24.000000
  0.375000  0.093750  0.468750     24.000000
  0.406250  0.093750  0.468750     24.000000
  0.437500  0.093750  0.468750     24.000000
  0.125000  0.125000  0.468750     12.000000
  0.156250  0.125000  0.468750     24.000000
  0.187500  0.125000  0.468750     24.000000
  0.218750  0.125000  0.468750     24.000000
  0.250000  0.125000  0.468750     24.000000
  0.281250  0.125000  0.468750     24.000000
  0.312500  0.125000  0.468750     24.000000
[...]
      4     -39.7433      1.00000
      5     -39.7245      1.00000
      6     -39.7245      1.00000
      7     -39.7166      1.00000
      8     -39.7166      1.00000
      9      -0.0552      1.00000
     10      -0.0552      1.00000
     11       6.2049      0.00000
     12       6.2049      0.00000
     13       7.2138      0.00000
     14       7.2138      0.00000
     15      11.4577      0.00000

 k-point *** :       0.2500    0.2188    0.5000
  band No.  band energies     occupation 
      1     -72.9489      1.00000
      2     -72.9489      1.00000
      3     -39.7440      1.00000
      4     -39.7440      1.00000
      5     -39.7258      1.00000
      6     -39.7258      1.00000
      7     -39.7166      1.00000
      8     -39.7166      1.00000
      9       0.3670      1.00000
     10       0.3670      1.00000
     11       5.6461      0.00000
     12       5.6461      0.00000
     13       6.8493      0.00000
     14       6.8493      0.00000
     15      11.8194      0.00000

 k-point *** :       0.2812    0.2187    0.5000
  band No.  band energies     occupation 
      1     -72.9491      1.00000
      2     -72.9491      1.00000
      3     -39.7449      1.00000
      4     -39.7449      1.00000
      5     -39.7271      1.00000
      6     -39.7271      1.00000
      7     -39.7167      1.00000
      8     -39.7167      1.00000
      9       0.8221      1.00000
     10       0.8221      1.00000
     11       5.0167      0.00000
     12       5.0167      0.00000
     13       6.6148      0.00000
     14       6.6148      0.00000
     15      12.2268      0.00000

 k-point *** :       0.3125    0.2188    0.5000
  band No.  band energies     occupation 
      1     -72.9490      1.00000
      2     -72.9490      1.00000
      3     -39.7455      1.00000
      4     -39.7455      1.00000
      5     -39.7282      1.00000
      6     -39.7282      1.00000
      7     -39.7167      1.00000
      8     -39.7167      1.00000
      9       1.3063      1.00000
     10       1.3063      1.00000
     11       4.3759      0.00000
     12       4.3759      0.00000
     13       6.4617      0.00000
     14       6.4617      0.00000
     15      12.6727      0.00000

 k-point *** :       0.3438    0.2187    0.5000
  band No.  band energies     occupation 
      1     -72.9486      1.00000
      2     -72.9486      1.00000
      3     -39.7456      1.00000
      4     -39.7456      1.00000
      5     -39.7289      1.00000
      6     -39.7289      1.00000
      7     -39.7167      1.00000
      8     -39.7167      1.00000
      9       1.8070      1.00000
     10       1.8070      1.00000
     11       3.7624      0.00000
     12       3.7624      0.00000
     13       6.3668      0.00000
     14       6.3668      0.00000
     15      13.1490      0.00000

 k-point *** :       0.3750    0.2187    0.5000
  band No.  band energies     occupation 
      1     -72.9498      1.00000
      2     -72.9498      1.00000
      3     -39.7460      1.00000
      4     -39.7460      1.00000
      5     -39.7296      1.00000
      6     -39.7296      1.00000
      7     -39.7168      1.00000
      8     -39.7168      1.00000
      9       2.2585      1.00000
     10       2.2585      1.00000
     11       3.2523      0.00000
     12       3.2523      0.00000
     13       6.3205      0.00000
     14       6.3205      0.00000
     15      13.6220      0.00000

 k-point *** :       0.2500    0.2500    0.5000
  band No.  band energies     occupation 
      1     -72.9491      1.00000
      2     -72.9491      1.00000
      3     -39.7445      1.00000
      4     -39.7445      1.00000
      5     -39.7274      1.00000
      6     -39.7274      1.00000
      7     -39.7168      1.00000
      8     -39.7168      1.00000
      9       0.8036      1.00000
     10       0.8036      1.00000
     11       5.2615      0.00000
     12       5.2615      0.00000
     13       6.3368      0.00000
     14       6.3368      0.00000
     15      12.2119      0.00000

 k-point *** :       0.2812    0.2500    0.5000
  band No.  band energies     occupation 
      1     -72.9493      1.00000
      2     -72.9493      1.00000
      3     -39.7449      1.00000
      4     -39.7449      1.00000
      5     -39.7289      1.00000
      6     -39.7289      1.00000
      7     -39.7167      1.00000
      8     -39.7167      1.00000
      9       1.2712      1.00000
     10       1.2712      1.00000
     11       4.7628      0.00000
     12       4.7628      0.00000
     13       6.0051      0.00000
     14       6.0051      0.00000
     15      12.6445      0.00000

 k-point *** :       0.3125    0.2500    0.5000
  band No.  band energies     occupation 
      1     -72.9493      1.00000
      2     -72.9493      1.00000
      3     -39.7450      1.00000
      4     -39.7450      1.00000
      5     -39.7301      1.00000
      6     -39.7301      1.00000
      7     -39.7168      1.00000
      8     -39.7168      1.00000
      9       1.7626      1.00000
     10       1.7626      1.00000
     11       4.1985      0.00000
     12       4.1985      0.00000
     13       5.8170      0.00000
     14       5.8170      0.00000
     15      13.1103      0.00000

 k-point *** :       0.3438    0.2500    0.5000
  band No.  band energies     occupation 
      1     -72.9488      1.00000
      2     -72.9488      1.00000
      3     -39.7449      1.00000
      4     -39.7449      1.00000
      5     -39.7309      1.00000
      6     -39.7309      1.00000
      7     -39.7167      1.00000
      8     -39.7167      1.00000
      9       2.2520      1.00000
     10       2.2520      1.00000
     11       3.6490      0.00000
     12       3.6490      0.00000
     13       5.7201      0.00000
     14       5.7201      0.00000
     15      13.5949      0.00000

 k-point *** :       0.3750    0.2500    0.5000
  band No.  band energies     occupation 
      1     -72.9487      1.00000
      2     -72.9487      1.00000
      3     -39.7449      1.00000
      4     -39.7449      1.00000
      5     -39.7311      1.00000
      6     -39.7311      1.00000
      7     -39.7167      1.00000
      8     -39.7167      1.00000
      9       2.5536      1.00000
     10       2.5536      1.00000
     11       3.3251      0.00000
     12       3.3251      0.00000
     13       5.6899      0.00000
     14       5.6899      0.00000
     15      13.9471      0.00000

 k-point *** :       0.2812    0.2812    0.5000
  band No.  band energies     occupation 
      1     -72.9497      1.00000
      2     -72.9497      1.00000
      3     -39.7447      1.00000
      4     -39.7447      1.00000
      5     -39.7306      1.00000
      6     -39.7306      1.00000
      7     -39.7168      1.00000
      8     -39.7168      1.00000
      9       1.7472      1.00000
     10       1.7472      1.00000
     11       4.4367      0.00000
     12       4.4367      0.00000
     13       5.5415      0.00000
     14       5.5415      0.00000
     15      13.0969      0.00000

 k-point *** :       0.3125    0.2812    0.5000
  band No.  band energies     occupation 
      1     -72.9488      1.00000
      2     -72.9488      1.00000
      3     -39.7443      1.00000
      4     -39.7443      1.00000
      5     -39.7317      1.00000
      6     -39.7317      1.00000
      7     -39.7167      1.00000
      8     -39.7167      1.00000
      9       2.2373      1.00000
     10       2.2373      1.00000
     11       4.0068      0.00000
     12       4.0068      0.00000
     13       5.2713      0.00000
     14       5.2713      0.00000
     15      13.5751      0.00000

 k-point *** :       0.3438    0.2812    0.5000
  band No.  band energies     occupation 
      1     -72.9479      1.00000
      2     -72.9479      1.00000
      3     -39.7439      1.00000
      4     -39.7439      1.00000
      5     -39.7323      1.00000
      6     -39.7323      1.00000
      7     -39.7166      1.00000
      8     -39.7166      1.00000
      9       2.6782      0.99918
     10       2.6782      0.99918
     11       3.5738      0.00000
     12       3.5738      0.00000
     13       5.1584      0.00000
     14       5.1584      0.00000
     15      14.0415      0.00000

 k-point *** :       0.3125    0.3125    0.5000
  band No.  band energies     occupation 
      1     -72.9479      1.00000
      2     -72.9479      1.00000
      3     -39.7435      1.00000
      4     -39.7435      1.00000
      5     -39.7328      1.00000
      6     -39.7328      1.00000
      7     -39.7166      1.00000
      8     -39.7166      1.00000
      9       2.7022      0.99751
     10       2.7022      0.99751
     11       3.7518      0.00000
     12       3.7518      0.00000
     13       4.9034      0.00000
     14       4.9034      0.00000
     15      14.0504      0.00000

 k-point *** :       0.3438    0.3125    0.5000
  band No.  band energies     occupation 
      1     -72.9485      1.00000
      2     -72.9485      1.00000
      3     -39.7434      1.00000
      4     -39.7434      1.00000
      5     -39.7334      1.00000
      6     -39.7334      1.00000
      7     -39.7166      1.00000
      8     -39.7166      1.00000
      9       2.9887      0.10703
     10       2.9887      0.10703
     11       3.5372      0.00000
     12       3.5372      0.00000
     13       4.7785      0.00000
     14       4.7785      0.00000
     15      14.4050      0.00000


--------------------------------------------------------------------------------------------------------


 soft charge-density along one line, spin component           1
         0         1         2         3         4         5         6         7         8         9
 total charge-density along one line
 
 soft charge-density along one line, spin component           2
         0         1         2         3         4         5         6         7         8         9
 total charge-density along one line
 
 pseudopotential strength for first ion, spin component:           1
-79.825  21.494   0.000   0.000   0.000   0.000   0.000   0.000
 21.494 -24.708   0.000   0.000   0.000   0.000   0.000   0.000
  0.000   0.000 -53.908   0.000   0.000  10.026   0.000   0.000
  0.000   0.000   0.000 -53.908   0.000   0.000  10.026   0.000
  0.000   0.000   0.000   0.000 -53.908   0.000   0.000  10.026
  0.000   0.000  10.026   0.000   0.000   7.009   0.000   0.000
  0.000   0.000   0.000  10.026   0.000   0.000   7.009   0.000
  0.000   0.000   0.000   0.000  10.026   0.000   0.000   7.009
  0.000   0.000   0.000   0.000   0.000   0.000   0.000   0.000
  0.000   0.000   0.000   0.000   0.000   0.000   0.000   0.000
  0.000   0.000   0.000   0.000   0.000   0.000   0.000   0.000
  0.000   0.000   0.000   0.000   0.000   0.000   0.000   0.000
  0.000   0.000   0.000   0.000   0.000   0.000   0.000   0.000
 pseudopotential strength for first ion, spin component:           2
-79.825  21.494   0.000   0.000   0.000   0.000   0.000   0.000
 21.494 -24.708   0.000   0.000   0.000   0.000   0.000   0.000
  0.000   0.000 -53.908   0.000   0.000  10.026   0.000   0.000
  0.000   0.000   0.000 -53.908   0.000   0.000  10.026   0.000
  0.000   0.000   0.000   0.000 -53.908   0.000   0.000  10.026
  0.000   0.000  10.026   0.000   0.000   7.009   0.000   0.000
  0.000   0.000   0.000  10.026   0.000   0.000   7.009   0.000
  0.000   0.000   0.000   0.000  10.026   0.000   0.000   7.009
  0.000   0.000   0.000   0.000   0.000   0.000   0.000   0.000
  0.000   0.000   0.000   0.000   0.000   0.000   0.000   0.000
  0.000   0.000   0.000   0.000   0.000   0.000   0.000   0.000
  0.000   0.000   0.000   0.000   0.000   0.000   0.000   0.000
  0.000   0.000   0.000   0.000   0.000   0.000   0.000   0.000
 total augmentation occupancy for first ion, spin component:           1
  2.000   0.000   0.000   0.000   0.000   0.000   0.000   0.000   0.000   0.000   0.000   0.000   0.000
  0.000   1.126   0.000   0.000   0.000   0.000   0.000   0.000   0.000   0.000   0.000   0.000   0.000
  0.000   0.000   2.002   0.000   0.000  -0.001   0.000   0.000   0.000   0.000   0.000   0.000   0.000
  0.000   0.000   0.000   2.002   0.000   0.000  -0.001   0.000   0.000   0.000   0.000   0.000   0.000
  0.000   0.000   0.000   0.000   2.002   0.000   0.000  -0.001   0.000   0.000   0.000   0.000   0.000
  0.000   0.000  -0.001   0.000   0.000   0.034   0.000   0.000   0.000   0.000   0.000   0.000  -0.002
  0.000   0.000   0.000  -0.001   0.000   0.000   0.034   0.000   0.000   0.000   0.000   0.000   0.000
  0.000   0.000   0.000   0.000  -0.001   0.000   0.000   0.034  -0.002   0.000   0.000   0.000   0.000
  0.000   0.000   0.000   0.000   0.000   0.000   0.000  -0.002   0.002   0.000   0.000   0.000   0.000
  0.000   0.000   0.000   0.000   0.000   0.000   0.000   0.000   0.000   0.002   0.000   0.000   0.000
  0.000   0.000   0.000   0.000   0.000   0.000   0.000   0.000   0.000   0.000   0.003   0.000   0.000
  0.000   0.000   0.000   0.000   0.000   0.000   0.000   0.000   0.000   0.000   0.000   0.002   0.000
  0.000   0.000   0.000   0.000   0.000  -0.002   0.000   0.000   0.000   0.000   0.000   0.000   0.002
 total augmentation occupancy for first ion, spin component:           2
  0.000   0.000   0.000   0.000   0.000   0.000   0.000   0.000   0.000   0.000   0.000   0.000   0.000
  0.000   0.000   0.000   0.000   0.000   0.000   0.000   0.000   0.000   0.000   0.000   0.000   0.000
  0.000   0.000   0.000   0.000   0.000   0.000   0.000   0.000   0.000   0.000   0.000   0.000   0.000
  0.000   0.000   0.000   0.000   0.000   0.000   0.000   0.000   0.000   0.000   0.000   0.000   0.000
  0.000   0.000   0.000   0.000   0.000   0.000   0.000   0.000   0.000   0.000   0.000   0.000   0.000
  0.000   0.000   0.000   0.000   0.000   0.000   0.000   0.000   0.000   0.000   0.000   0.000   0.000
  0.000   0.000   0.000   0.000   0.000   0.000   0.000   0.000   0.000   0.000   0.000   0.000   0.000
  0.000   0.000   0.000   0.000   0.000   0.000   0.000   0.000   0.000   0.000   0.000   0.000   0.000
  0.000   0.000   0.000   0.000   0.000   0.000   0.000   0.000   0.000   0.000   0.000   0.000   0.000
  0.000   0.000   0.000   0.000   0.000   0.000   0.000   0.000   0.000   0.000   0.000   0.000   0.000
  0.000   0.000   0.000   0.000   0.000   0.000   0.000   0.000   0.000   0.000   0.000   0.000   0.000
  0.000   0.000   0.000   0.000   0.000   0.000   0.000   0.000   0.000   0.000   0.000   0.000   0.000
  0.000   0.000   0.000   0.000   0.000   0.000   0.000   0.000   0.000   0.000   0.000   0.000   0.000


------------------------ aborting loop because EDIFF is reached ----------------------------------------


    CHARGE:  cpu time   35.13: real time   35.13
    FORLOC:  cpu time    0.00: real time    0.01
    FORNL :  cpu time  631.06: real time  158.84
    STRESS:  cpu time 1894.03: real time  477.71
    FORHAR:  cpu time    0.13: real time    0.03
    MIXING:  cpu time    0.03: real time    0.01

  FORCE on cell =-STRESS in cart. coord.  units (eV):
  Direction    XX          YY          ZZ          XY          YZ          ZX
  --------------------------------------------------------------------------------------
  Alpha Z    69.26821    69.26821    69.26821
  Ewald    -504.71187  -504.71186  -499.37854     0.00000     0.00000     0.00000
  Hartree   394.16060   394.16060   397.72605     0.00000     0.00000     0.00000
  E(xc)    -138.47838  -138.47845  -138.47856    -0.00006     0.00000     0.00000
  Local      43.17603    43.17605    34.42957     0.00003     0.00000     0.00000
  n-local  -341.76474  -342.78118  -342.27162     3.20879    -0.51437    -0.74204
  augment    40.50011    40.50002    40.47939    -0.00009     0.00000    -0.00001
  Kinetic   439.94245   436.72795   438.18928     6.74787    -1.60772    -2.12827
  Fock        0.00000     0.00000     0.00000     0.00000     0.00000     0.00000
  -------------------------------------------------------------------------------------
  Total      -0.02313    -0.02313    -0.03623     0.00000     0.00000     0.00000
  in kB      -0.88486    -0.88486    -1.38574     0.00000     0.00000     0.00000
  external pressure =       -1.05 kB  Pullay stress =        0.00 kB


 VOLUME and BASIS-vectors are now :
 -----------------------------------------------------------------------------
  energy-cutoff  :      500.00
  volume of cell :       41.88
      direct lattice vectors                 reciprocal lattice vectors
     3.101036540  0.000000000  0.000000000     0.322472821  0.186179770  0.000000000
    -1.550518270  2.685576422  0.000000000     0.000000000  0.372359540  0.000000000
     0.000000000  0.000000000  5.029356051     0.000000000  0.000000000  0.198832612

  length of vectors
     3.101036540  3.101036540  5.029356051     0.372359540  0.372359540  0.198832612


 FORCES acting on ions
    electron-ion (+dipol)            ewald-force                    non-local-force                 convergence-correction
 -----------------------------------------------------------------------------------------------
   0.483E-05 -.146E-03 0.114E-10   -.183E-05 -.223E-05 -.157E-13   -.278E-16 0.347E-17 0.000E+00   0.472E-08 0.576E-07 -.226E-12
   0.245E-03 0.146E-03 -.213E-10   0.183E-05 0.223E-05 0.157E-13   0.312E-16 -.347E-17 0.000E+00   -.897E-07 -.576E-07 0.709E-13
 -----------------------------------------------------------------------------------------------
   0.250E-03 -.185E-10 -.995E-11   0.365E-14 0.978E-14 0.000E+00   0.347E-17 0.000E+00 0.000E+00   -.850E-07 -.344E-11 -.155E-12
 
 
 POSITION                                       TOTAL-FORCE (eV/Angst)
 -----------------------------------------------------------------------------------
      0.00000      1.79038      1.25734         0.000000      0.000000      0.000000
      1.55052      0.89519      3.77202         0.000000      0.000000      0.000000
 -----------------------------------------------------------------------------------
    total drift:                                0.000250      0.000000      0.000000


--------------------------------------------------------------------------------------------------------



  FREE ENERGIE OF THE ION-ELECTRON SYSTEM (eV)
  ---------------------------------------------------
  free  energy   TOTEN  =        -2.990478 eV

  energy  without entropy=       -2.986410  energy(sigma->0) =       -2.988444
 


--------------------------------------------------------------------------------------------------------


    POTLOK:  cpu time    0.46: real time    0.33


--------------------------------------------------------------------------------------------------------




--------------------------------------------------------------------------------------------------------


  
 reached required accuracy - stopping structural energy minimisation
 writing wavefunctions
     LOOP+:  cpu time34119.40: real time 8925.78
    4ORBIT:  cpu time    0.00: real time    0.00

 total amount of memory used by VASP on root node   977408. kBytes
========================================================================

   base      :      30000. kBytes
   nonlr-proj:        613. kBytes
   fftplans  :       4448. kBytes
   grid      :      10949. kBytes
   one-center:         32. kBytes
   wavefun   :     931366. kBytes
 
  
  
 General timing and accounting informations for this job:
 ========================================================
  
                  Total CPU time used (sec):    34348.918
                            User time (sec):    33385.710
                          System time (sec):      963.208
                         Elapsed time (sec):     8995.327
  
                   Maximum memory used (kb):     2843784.
                   Average memory used (kb):           0.
  
                          Minor page faults:       743127
                          Major page faults:            0
                 Voluntary context switches:       170195
